<?xml version="1.0"?>
<VTKFile type="UnstructuredGrid" version="1.0" byte_order="LittleEndian" header_type="UInt64">
	 <UnstructuredGrid>
		 <FieldData> 
			 <DataArray type = "Float64" Name = "TimeValue" NumberOfTuples = "1" format = "ascii" RangeMin = "4.000" RangeMax = "4.000"> 
			 4.000 
			 </DataArray > 
		 </FieldData> 
		 <Piece NumberOfPoints="1000" NumberOfCells="441">
			 <PointData Scalars="scalars">
				 <DataArray type="Float64" NumberOfComponents="3" Name="Velocity" format="ascii">
0.408987 -0.381021 0
0.366278 -0.433204 -0.727118
0.279224 -0.507909 -1.20071
0.180252 -0.576427 -1.55881
0.0846338 -0.636152 -1.84348
-0.00193295 -0.687632 -2.07514
-0.0775768 -0.731584 -2.26507
-0.141267 -0.76821 -2.41865
-0.190895 -0.79664 -2.53525
-0.21995 -0.813833 -2.60373
0.187074 -0.218537 0
0.0881028 -0.23324 -0.789918
-0.0890777 -0.25586 -1.31335
-0.279394 -0.278327 -1.71916
-0.459801 -0.299136 -2.0497
-0.622191 -0.317856 -2.32439
-0.763953 -0.334322 -2.5535
-0.883399 -0.348336 -2.74135
-0.976584 -0.359373 -2.88549
-1.02855 -0.365571 -2.96515
-0.0101949 -0.0284457 0
-0.138593 0.00723403 -0.753671
-0.354373 0.0601698 -1.2472
-0.575378 0.109468 -1.62657
-0.778462 0.152375 -1.93373
-0.957355 0.189054 -2.18782
-1.11107 0.220058 -2.39899
-1.23906 0.245646 -2.57164
-1.33804 0.265345 -2.70384
-1.39293 0.276248 -2.7768
-0.17376 0.148326 0
-0.306982 0.226292 -0.606939
-0.518915 0.341186 -0.977084
-0.72548 0.447499 -1.24287
-0.908347 0.539521 -1.44648
-1.06492 0.617822 -1.60766
-1.19652 0.683749 -1.73704
-1.30421 0.737986 -1.83996
-1.3864 0.779637 -1.91714
-1.43159 0.802652 -1.95916
-0.310273 0.275545 0
-0.436081 0.366899 -0.392369
-0.629102 0.494462 -0.596366
-0.81163 0.605225 -0.719775
-0.969862 0.695794 -0.800241
-1.10331 0.769275 -0.855037
-1.21422 0.82878 -0.893263
-1.30421 0.876229 -0.919996
-1.37244 0.911798 -0.937905
-1.40981 0.931144 -0.946887
-0.432885 0.343158 0
-0.5504 0.419666 -0.187867
-0.727129 0.515873 -0.266918
-0.892805 0.58831 -0.308872
-1.03649 0.639165 -0.335473
-1.15819 0.674543 -0.354125
-1.25988 0.699179 -0.367863
-1.34285 0.716185 -0.378089
-1.40608 0.727376 -0.385365
-1.44082 0.732898 -0.389186
-0.548043 0.369528 0
-0.658329 0.42684 -0.0358936
-0.815132 0.493024 -0.0548939
-0.954509 0.536783 -0.0873245
-1.0707 0.562569 -0.132056
-1.16628 0.576604 -0.182633
-1.24443 0.583321 -0.233757
-1.30713 0.585644 -0.281318
-1.35433 0.585601 -0.321015
-1.38005 0.584932 -0.344076
-0.648347 0.381052 0
-0.749231 0.43646 0.0895405
-0.873395 0.508619 0.124172
-0.963933 0.567648 0.109648
-1.02486 0.613965 0.063692
-1.06498 0.650441 0.00192573
-1.09104 0.679317 -0.0650163
-1.10755 0.701939 -0.12959
-1.11739 0.718669 -0.184631
-1.12181 0.727687 -0.216979
-0.714842 0.387198 0
-0.801981 0.457455 0.241188
-0.886113 0.562359 0.391306
-0.920315 0.662871 0.481264
-0.919272 0.753117 0.530605
-0.898229 0.832283 0.554309
-0.867492 0.900536 0.56243
-0.834024 0.957704 0.561615
-0.803661 1.00218 0.556685
-0.785238 1.02697 0.552432
-0.727179 0.372447 0
-0.794635 0.455528 0.436455
-0.841489 0.581131 0.762919
-0.835627 0.701724 1.02906
-0.797693 0.809577 1.24765
-0.744667 0.903699 1.42787
-0.687045 0.984457 1.57621
-0.631691 1.05183 1.69616
-0.584743 1.10408 1.78707
-0.557255 1.13314 1.83688
-0.6768 0.309731 0
-0.715341 0.387266 0.642304
-0.721983 0.498031 1.14122
-0.685613 0.596733 1.56624
-0.628634 0.679156 1.92881
-0.565531 0.747098 2.23697
-0.503996 0.802775 2.49683
-0.448584 0.847562 2.71099
-0.403514 0.88135 2.87566
-0.377773 0.899801 2.96673
-0.576082 0.182514 0
-0.576972 0.232437 0.809079
-0.528932 0.298178 1.42637
-0.445918 0.350172 1.94092
-0.353387 0.388284 2.3714
-0.26425 0.415849 2.73152
-0.184035 0.435761 3.0314
-0.115543 0.450001 3.2761
-0.0618412 0.459685 3.46288
-0.031857 0.464587 3.56567
-0.455481 0.000952714 0
-0.424549 0.00472017 0.888283
-0.32591 0.00619497 1.55264
-0.191613 0.00348646 2.09271
-0.0512904 -0.00177348 2.53399
0.0807752 -0.00820402 2.89568
0.198562 -0.0149031 3.19177
0.298828 -0.0212337 3.43007
0.3774 -0.0265678 3.60999
0.421286 -0.0296836 3.70831
-0.347431 -0.197385 0
-0.314202 -0.246382 0.840706
-0.218685 -0.315216 1.46906
-0.0890967 -0.373775 1.98173
0.0487531 -0.419786 2.4026
0.181184 -0.455358 2.74909
0.301553 -0.482762 3.03381
0.405693 -0.5036 3.26364
0.488373 -0.518584 3.43757
0.534962 -0.526494 3.53276
-0.27008 -0.365022 0
-0.268575 -0.454475 0.668911
-0.246279 -0.578693 1.17738
-0.206412 -0.684181 1.60548
-0.158682 -0.767617 1.9686
-0.109503 -0.832818 2.27631
-0.062627 -0.883673 2.53536
-0.0206577 -0.922828 2.74864
0.0134977 -0.951304 2.91254
0.0330468 -0.966462 3.00314
-0.226416 -0.467898 0
-0.265722 -0.575994 0.423516
-0.334825 -0.727717 0.755464
-0.408909 -0.860248 1.04709
-0.479127 -0.969075 1.3041
-0.542201 -1.05757 1.52868
-0.597065 -1.12931 1.72236
-0.643098 -1.18652 1.88481
-0.678864 -1.22939 2.01141
-0.698749 -1.25269 2.08203
-0.21799 -0.495467 0
-0.282216 -0.604749 0.158571
-0.404626 -0.75948 0.29425
-0.54462 -0.897358 0.422422
-0.683458 -1.01338 0.540839
-0.812408 -1.11004 0.647513
-0.927487 -1.19015 0.741383
-1.02599 -1.25527 0.821214
-1.1037 -1.30483 0.884015
-1.14733 -1.33206 0.919246
-0.257518 -0.454408 0
-0.328742 -0.554075 -0.0938334
-0.456502 -0.694981 -0.147011
-0.596983 -0.820335 -0.180236
-0.733398 -0.925674 -0.202519
-0.85856 -1.01335 -0.218497
-0.969405 -1.08595 -0.230528
-1.0638 -1.14492 -0.239756
-1.13802 -1.18979 -0.246554
-1.17961 -1.21444 -0.250231
-0.366103 -0.357886 0
-0.447137 -0.440026 -0.312566
-0.570814 -0.555445 -0.526172
-0.689077 -0.656454 -0.691788
-0.793422 -0.739527 -0.825457
-0.882983 -0.807157 -0.935623
-0.958574 -0.862019 -1.027
-1.0207 -0.905791 -1.10166
-1.0683 -0.938604 -1.15885
-1.09454 -0.956446 -1.19043
-0.555088 -0.219841 0
-0.67211 -0.276981 -0.475311
-0.834707 -0.358217 -0.804632
-0.975015 -0.429509 -1.05918
-1.0888 -0.48778 -1.26141
-1.18023 -0.534707 -1.42466
-1.25351 -0.5723 -1.55722
-1.31138 -0.60192 -1.66347
-1.35438 -0.623877 -1.74354
-1.37763 -0.635719 -1.78727
-0.807515 -0.0547357 0
-0.983493 -0.0810175 -0.563234
-1.23082 -0.121485 -0.957424
-1.44798 -0.16003 -1.26279
-1.62753 -0.193672 -1.50416
-1.77458 -0.222196 -1.69732
-1.89457 -0.245999 -1.85262
-1.99081 -0.265373 -1.97591
-2.06327 -0.280098 -2.06804
-2.1028 -0.288172 -2.11805
-1.07797 0.121135 0
-1.30749 0.129591 -0.570045
-1.63292 0.137202 -0.977738
-1.92228 0.139377 -1.30099
-2.16455 0.137869 -1.56141
-2.36518 0.134396 -1.77293
-2.53044 0.130087 -1.94496
-2.66402 0.125688 -2.08274
-2.76521 0.121833 -2.18639
-2.82063 0.119536 -2.24289
-1.31684 0.288189 0
-1.5727 0.333596 -0.49251
-1.92794 0.396812 -0.851446
-2.23696 0.451047 -1.14335
-2.49118 0.494596 -1.38409
-2.69884 0.529215 -1.58346
-2.86807 0.556687 -1.74822
-3.00373 0.578188 -1.88185
-3.10586 0.594051 -1.98336
-3.16156 0.602583 -2.03906
-1.5009 0.423251 0
-1.75739 0.500843 -0.327946
-2.09694 0.614992 -0.5596
-2.37632 0.719764 -0.745689
-2.59497 0.809277 -0.898923
-2.76622 0.88433 -1.02614
-2.901 0.946619 -1.13165
-3.00601 0.997204 -1.21755
-3.08332 1.03563 -1.28302
-3.12487 1.05671 -1.31902
-1.64101 0.504883 0
-1.89309 0.597431 -0.0983422
-2.21198 0.733516 -0.140281
-2.45922 0.859013 -0.15714
-2.64154 0.967027 -0.161896
-2.77654 1.05829 -0.160733
-2.8775 1.13458 -0.156803
-2.95268 1.1969 -0.151875
-3.00597 1.24449 -0.147185
-3.03386 1.27068 -0.144288
-1.7595 0.522098 0
-2.02364 0.608394 0.139614
-2.35833 0.729658 0.282642
-2.61871 0.836402 0.425334
-2.81154 0.92501 0.558455
-2.95499 0.997881 0.678042
-3.06276 1.05757 0.782651
-3.14338 1.1056 0.871062
-3.20075 1.14187 0.940239
-3.23086 1.16168 0.978901
-1.86166 0.476545 0
-2.15441 0.546529 0.338594
-2.5359 0.639571 0.611105
-2.84364 0.715953 0.84843
-3.08 0.775327 1.05348
-3.26199 0.821431 1.22914
-3.40311 0.857399 1.37804
-3.51168 0.885198 1.50117
-3.59079 0.905525 1.59608
-3.63301 0.916397 1.64865
-1.92767 0.37684 0
-2.24862 0.429358 0.491956
-2.67179 0.498953 0.851711
-3.01685 0.55528 1.14089
-3.28393 0.598115 1.37643
-3.49076 0.630543 1.56959
-3.65182 0.65519 1.72805
-3.77614 0.673768 1.85589
-3.86695 0.687056 1.95265
-3.91549 0.69405 2.00562
-1.92705 0.235534 0
-2.26213 0.26456 0.599887
-2.70178 0.305369 1.02752
-3.05607 0.340407 1.36071
-3.32609 0.368331 1.62413
-3.53177 0.390269 1.83461
-3.68939 0.407446 2.00351
-3.80927 0.42071 2.13731
-3.89576 0.430377 2.23713
-3.94157 0.43553 2.29125
-1.8386 0.0749643 0
-2.17136 0.0674179 0.635325
-2.60864 0.0574981 1.09186
-2.96023 0.0491828 1.44763
-3.22671 0.0424169 1.72769
-3.42825 0.0368654 1.9501
-3.58149 0.0322886 2.12743
-3.69714 0.0285682 2.26708
-3.77999 0.02573 2.37071
-3.82365 0.0241666 2.42669
-1.66139 -0.0689598 0
-1.97867 -0.11818 0.565001
-2.40817 -0.190893 0.968646
-2.76682 -0.257693 1.2801
-3.04894 -0.314666 1.52271
-3.26975 -0.362304 1.71349
-3.44291 -0.401724 1.86426
-3.57719 -0.433647 1.98208
-3.67558 -0.457842 2.06897
-3.72826 -0.471089 2.1157
-1.41416 -0.160147 0
-1.70396 -0.236103 0.398566
-2.11965 -0.349514 0.663975
-2.49282 -0.45476 0.853504
-2.80695 -0.5452 0.990839
-3.06777 -0.621239 1.09199
-3.28281 -0.68442 1.16738
-3.45665 -0.735745 1.22332
-3.58832 -0.774733 1.26284
-3.6604 -0.796111 1.28345
-1.12672 -0.183404 0
-1.37594 -0.260539 0.195535
-1.75773 -0.372657 0.293448
-2.12698 -0.474009 0.335573
-2.45786 -0.559403 0.345606
-2.74651 -0.630166 0.338246
-2.99387 -0.688332 0.322237
-3.19993 -0.735202 0.30307
-3.35955 -0.770594 0.284997
-3.44822 -0.789928 0.273841
-0.828067 -0.148561 0
-1.0253 -0.209397 0.0184943
-1.34324 -0.292134 -0.0156649
-1.6672 -0.361381 -0.0814172
-1.96931 -0.415886 -0.160139
-2.24067 -0.458545 -0.24074
-2.47831 -0.491989 -0.317064
-2.67947 -0.517916 -0.385013
-2.83715 -0.536908 -0.440064
-2.92538 -0.547073 -0.471479
-0.538178 -0.0761688 0
-0.677046 -0.116276 -0.106419
-0.904843 -0.166065 -0.215903
-1.14061 -0.20231 -0.329526
-1.3628 -0.226507 -0.438927
-1.56379 -0.242282 -0.539391
-1.74064 -0.25242 -0.628641
-1.89088 -0.258773 -0.704915
-2.00891 -0.262516 -0.765071
-2.07506 -0.264181 -0.798858
-0.267393 0.0152618 0
-0.349654 -0.00360732 -0.179816
-0.479403 -0.0256142 -0.323432
-0.607522 -0.0393777 -0.44685
-0.723395 -0.0462416 -0.551745
-0.824758 -0.0485996 -0.640158
-0.911591 -0.0482697 -0.714021
-0.983803 -0.0465158 -0.774357
-1.03963 -0.0443131 -0.820407
-1.07058 -0.0427913 -0.845742
-0.0197859 0.109593 0
-0.0603875 0.11628 -0.199263
-0.119213 0.125314 -0.350941
-0.1703 0.133193 -0.473028
-0.210591 0.139799 -0.570522
-0.24145 0.145316 -0.648318
-0.26479 0.149906 -0.710327
-0.282117 0.153654 -0.759014
-0.294259 0.156517 -0.795009
-0.300533 0.158094 -0.814386
0.205161 0.187058 0
0.180575 0.223001 -0.152562
0.136628 0.271455 -0.27738
0.0908251 0.311184 -0.383922
0.04882 0.341491 -0.473255
0.0120499 0.364318 -0.547554
-0.0193483 0.381485 -0.6089
-0.0453563 0.394247 -0.658515
-0.0653898 0.403241 -0.696079
-0.0804225 0.409335 -0.723347
0.412466 0.223465 0
0.383377 0.281133 -0.0413544
0.309887 0.362496 -0.0906511
0.215042 0.433524 -0.143715
0.115726 0.491438 -0.196009
0.0205282 0.538037 -0.245041
-0.0662804 0.575363 -0.289399
-0.141778 0.604781 -0.327887
-0.202045 0.626596 -0.358607
-0.253621 0.644284 -0.384671
0.608957 0.198481 0
0.574848 0.257415 0.10042
0.471105 0.342644 0.159341
0.329559 0.420461 0.197039
0.179272 0.487262 0.220904
0.0351305 0.543766 0.235555
-0.0957915 0.591119 0.244095
-0.209061 0.629928 0.248627
-0.299025 0.659642 0.250629
-0.382828 0.686815 0.252057
0.796147 0.106465 0
0.776847 0.14144 0.216176
0.682216 0.190291 0.367203
0.541788 0.23482 0.49089
0.390992 0.274009 0.595437
0.247445 0.30829 0.684292
0.118736 0.337991 0.7594
0.00889497 0.363059 0.821466
-0.0914345 0.385893 0.877546
-0.186908 0.407531 0.931596
0.963312 -0.0377219 0
0.986598 -0.0449801 0.251429
0.955654 -0.0632183 0.420288
0.878662 -0.0853315 0.561906
0.788434 -0.106801 0.688009
0.701528 -0.125947 0.801016
0.624542 -0.142324 0.901008
0.560167 -0.155812 0.986758
0.471323 -0.177247 1.11448
0.420611 -0.189558 1.18854
1.08829 -0.202569 0
1.17206 -0.252728 0.181867
1.24391 -0.337256 0.264929
1.27534 -0.425192 0.317069
1.28781 -0.507644 0.359552
1.29376 -0.581734 0.39813
1.29828 -0.646546 0.433735
1.30815 -0.734267 0.48053
1.31974 -0.821018 0.526594
1.32647 -0.867974 0.552138
1.14773 -0.353437 0
1.28493 -0.428813 0.0318212
1.45529 -0.544355 -0.0391027
1.59374 -0.656847 -0.147308
1.70669 -0.758798 -0.261448
1.80122 -0.848882 -0.369311
1.88113 -0.927043 -0.466109
2.0124 -1.06147 -0.643779
2.11052 -1.16199 -0.777042
2.16374 -1.21644 -0.84934
1.1294 -0.466349 0
1.28971 -0.545519 -0.142684
1.51124 -0.652528 -0.354905
1.71043 -0.74407 -0.595457
1.88227 -0.819084 -0.833848
2.02914 -0.880544 -1.05614
2.16814 -0.936202 -1.28191
2.37457 -1.0141 -1.63826
2.52697 -1.07121 -1.90512
2.60914 -1.10186 -2.05044
1.03666 -0.53142 0
1.18472 -0.604845 -0.301056
1.39968 -0.691207 -0.593578
1.60367 -0.751631 -0.879043
1.78696 -0.791091 -1.14325
1.9481 -0.816451 -1.38014
2.0906 -0.832545 -1.59225
2.33546 -0.842787 -1.94694
2.51675 -0.848733 -2.21115
2.6147 -0.851336 -2.35449
0.883226 -0.546354 0
0.990381 -0.616729 -0.440536
1.14927 -0.696993 -0.772103
1.30646 -0.750284 -1.04737
1.45386 -0.782624 -1.27695
1.58823 -0.801385 -1.46813
1.70763 -0.811616 -1.62643
1.89207 -0.814425 -1.83426
2.05904 -0.81401 -2.01492
2.14967 -0.813148 -2.1119
0.68601 -0.508338 0
0.731069 -0.577835 -0.575528
0.791376 -0.665698 -0.9555
0.849408 -0.734949 -1.24
0.90536 -0.78764 -1.46061
0.958399 -0.828229 -1.63477
1.00723 -0.859894 -1.77322
1.05316 -0.885711 -1.88623
1.13273 -0.923199 -2.03292
1.17605 -0.943083 -2.11101
0.463714 -0.412692 0
0.437422 -0.470664 -0.701719
0.377844 -0.552112 -1.15692
0.308002 -0.625331 -1.4985
0.240374 -0.688176 -1.76771
0.17949 -0.741747 -1.985
0.126679 -0.787125 -2.16187
0.0825255 -0.824728 -2.30401
0.0483257 -0.853801 -2.4114
0.0214757 -0.883065 -2.50794
0.238832 -0.26141 0
0.151158 -0.286878 -0.782577
-0.00877237 -0.325186 -1.29975
-0.182486 -0.362203 -1.69919
-0.348113 -0.395751 -2.02344
-0.497709 -0.425462 -2.29214
-0.628593 -0.451309 -2.51578
-0.739044 -0.473131 -2.69884
-0.825305 -0.490223 -2.83913
-0.873443 -0.499788 -2.9166
0.579778 -0.441198 0
0.585787 -0.514188 -0.759992
0.579872 -0.623543 -1.27919
0.567084 -0.728303 -1.68443
0.554662 -0.822363 -2.01234
0.544808 -0.904972 -2.28196
0.537669 -0.976333 -2.5044
0.532831 -1.03624 -2.685
0.532426 -1.10157 -2.87029
0.534782 -1.15441 -3.01461
0.372786 -0.276951 0
0.325474 -0.306011 -0.867074
0.239353 -0.350992 -1.48055
0.151252 -0.39534 -1.97948
0.0736224 -0.435834 -2.3977
0.00882841 -0.47171 -2.75126
-0.0438777 -0.50283 -3.0493
-0.0855838 -0.528998 -3.2953
-0.116455 -0.549412 -3.48486
-0.133051 -0.560802 -3.58987
0.16913 -0.0811787 0
0.0859643 -0.0505411 -0.850135
-0.0495906 -0.00285955 -1.44478
-0.180656 0.0437213 -1.92361
-0.293716 0.0858244 -2.32151
-0.387541 0.122876 -2.65536
-0.463971 0.154898 -2.93498
-0.52474 0.181778 -3.16455
-0.569988 0.202735 -3.34072
-0.594436 0.214428 -3.43804
-0.0231871 0.101974 0
-0.127092 0.180403 -0.701218
-0.289342 0.298497 -1.16014
-0.443591 0.409822 -1.50775
-0.577052 0.507376 -1.7827
-0.68915 0.591055 -2.00447
-0.7819 0.661889 -2.18443
-0.856852 0.720376 -2.32852
-0.913499 0.765399 -2.43696
-0.944443 0.790313 -2.4961
-0.202636 0.233745 0
-0.316421 0.326515 -0.479483
-0.489472 0.45766 -0.760339
-0.653071 0.572496 -0.95331
-0.796018 0.666711 -1.09446
-0.918002 0.743178 -1.20114
-1.02068 0.805031 -1.28307
-1.10502 0.854264 -1.34567
-1.16966 0.891101 -1.39104
-1.20532 0.911106 -1.41514
-0.370844 0.304049 0
-0.485667 0.382395 -0.269271
-0.650029 0.484061 -0.414534
-0.797234 0.56385 -0.514842
-0.921146 0.622442 -0.592261
-1.02423 0.665189 -0.654649
-1.10949 0.696482 -0.705554
-1.17865 0.719224 -0.746559
-1.2312 0.734955 -0.777576
-1.26004 0.74303 -0.794548
-0.527938 0.333409 0
-0.638408 0.393141 -0.109685
-0.776034 0.468078 -0.174267
-0.877912 0.52515 -0.237251
-0.947854 0.566156 -0.3028
-0.995213 0.595574 -0.367732
-1.02717 0.616813 -0.428817
-1.04846 0.632067 -0.483236
-1.06195 0.642513 -0.52743
-1.06839 0.647836 -0.552702
-0.668094 0.351302 0
-0.776921 0.408527 0.0245161
-0.891188 0.488722 0.0414618
-0.949527 0.560653 0.036827
-0.965686 0.62205 0.0156572
-0.956388 0.673947 -0.0145072
-0.933471 0.717486 -0.0480145
-0.905051 0.753225 -0.0807523
-0.87774 0.780628 -0.108859
-0.860705 0.795755 -0.125438
-0.776683 0.369428 0
-0.892027 0.439738 0.179852
-1.01043 0.54607 0.328209
-1.06812 0.648672 0.451439
-1.08109 0.740922 0.551761
-1.06759 0.821755 0.633251
-1.04028 0.891308 0.699358
-1.00774 0.949443 0.752147
-0.977014 0.994592 0.79176
-0.958002 1.01971 0.813319
-0.833491 0.371708 0
-0.955915 0.454439 0.371505
-1.09584 0.576639 0.685708
-1.18776 0.690028 0.966836
-1.24231 0.788099 1.21314
-1.27288 0.871245 1.42579
-1.28866 0.940898 1.6069
-1.29552 0.997896 1.75714
-1.29735 1.04145 1.87317
-1.29716 1.06543 1.9375
-0.824101 0.326817 0
-0.939362 0.407372 0.577502
-1.08001 0.520401 1.04894
-1.18703 0.618281 1.46024
-1.26665 0.697495 1.81393
-1.32731 0.760847 2.11494
-1.37447 0.811357 2.36842
-1.41113 0.851027 2.57684
-1.43819 0.880373 2.73672
-1.45279 0.896182 2.82497
-0.752491 0.212109 0
-0.842395 0.268849 0.757866
-0.945597 0.345493 1.3545
-1.01924 0.408674 1.85709
-1.07178 0.457361 2.27689
-1.1111 0.494553 2.62585
-1.14166 0.522992 2.91423
-1.16563 0.544512 3.14779
-1.18357 0.559941 3.3249
-1.19336 0.568071 3.42193
-0.642059 0.0341179 0
-0.70344 0.0434826 0.855082
-0.759221 0.0535811 1.51825
-0.782236 0.0601274 2.06954
-0.785541 0.0643128 2.52511
-0.779146 0.0671185 2.90053
-0.768661 0.0690907 3.20854
-0.757239 0.0705118 3.45655
-0.747052 0.0715061 3.64376
-0.740967 0.0720254 3.746
-0.521698 -0.16802 0
-0.573736 -0.217085 0.812634
-0.623378 -0.290552 1.43982
-0.645377 -0.357213 1.96449
-0.649252 -0.412454 2.40265
-0.643377 -0.457088 2.76767
-0.632899 -0.492775 3.07014
-0.620992 -0.520773 3.31579
-0.610058 -0.541423 3.5025
-0.603405 -0.552515 3.60495
-0.410933 -0.34252 0
-0.476129 -0.436161 0.630509
-0.570662 -0.57457 1.10891
-0.657629 -0.700928 1.51071
-0.732817 -0.80766 1.8508
-0.796749 -0.895986 2.13849
-0.850514 -0.968366 2.38037
-0.89468 -1.02648 2.5793
-0.928543 -1.0702 2.73207
-0.947231 -1.09402 2.81647
-0.318937 -0.453132 0
-0.399558 -0.564413 0.371515
-0.542585 -0.726804 0.639337
-0.699309 -0.875074 0.858848
-0.851751 -1.00154 1.04359
-0.992113 -1.10762 1.20026
-1.11691 -1.19576 1.3327
-1.2236 -1.26745 1.44229
-1.30774 -1.32199 1.52692
-1.355 -1.35193 1.57387
-0.255573 -0.491206 0
-0.335092 -0.599635 0.101916
-0.485271 -0.753258 0.159853
-0.656823 -0.890188 0.197312
-0.827453 -1.00538 0.223553
-0.986559 -1.10129 0.24308
-1.12911 -1.18071 0.258166
-1.25157 -1.24522 0.269915
-1.34845 -1.29427 0.278637
-1.40297 -1.32121 0.283368
-0.240643 -0.466746 0
-0.304249 -0.564767 -0.145022
-0.419259 -0.698274 -0.26257
-0.545813 -0.81173 -0.367911
-0.668207 -0.903169 -0.461632
-0.779892 -0.976638 -0.543909
-0.878265 -1.03574 -0.615018
-0.961635 -1.08265 -0.674722
-1.02692 -1.1177 -0.721267
-1.0634 -1.13672 -0.747232
-0.299847 -0.392929 0
-0.355014 -0.4801 -0.363128
-0.436445 -0.597513 -0.621424
-0.510494 -0.694925 -0.827705
-0.57219 -0.771072 -0.996554
-0.622154 -0.83033 -1.13627
-0.66205 -0.876566 -1.252
-0.693229 -0.912265 -1.34622
-0.716107 -0.938329 -1.41807
-0.72834 -0.95225 -1.4576
-0.447922 -0.277916 0
-0.52536 -0.350462 -0.547677
-0.626189 -0.45262 -0.927023
-0.706063 -0.541657 -1.2187
-0.765191 -0.614264 -1.44846
-0.808497 -0.672781 -1.63217
-0.840188 -0.719772 -1.77997
-0.863132 -0.756919 -1.89744
-0.87891 -0.784547 -1.98535
-0.886962 -0.799487 -2.03313
-0.672125 -0.127242 0
-0.799079 -0.173532 -0.678681
-0.969856 -0.244033 -1.15749
-1.11332 -0.311174 -1.53179
-1.2279 -0.370259 -1.83018
-1.31926 -0.420939 -2.07073
-1.39229 -0.463743 -2.26538
-1.44993 -0.498974 -2.42071
-1.49281 -0.526009 -2.53728
-1.51602 -0.540932 -2.60074
-0.932663 0.0482019 0
-1.10972 0.042218 -0.72689
-1.34976 0.0296697 -1.25203
-1.5538 0.0140171 -1.67414
-1.71886 -0.00247529 -2.01893
-1.85213 -0.0184534 -2.30248
-1.95987 -0.0331525 -2.53559
-2.04576 -0.0460186 -2.72396
-2.11017 -0.0563338 -2.86669
-2.14522 -0.0621855 -2.94488
-1.18459 0.225727 0
-1.39454 0.266644 -0.66849
-1.67156 0.327332 -1.14946
-1.89893 0.382963 -1.53791
-2.07677 0.430168 -1.8576
-2.21612 0.469427 -2.12243
-2.32593 0.501755 -2.34151
-2.41162 0.52783 -2.51947
-2.47481 0.547527 -2.65485
-2.5088 0.558289 -2.7292
-1.40383 0.373158 0
-1.63358 0.450729 -0.502236
-1.92764 0.569101 -0.836824
-2.1593 0.681707 -1.09136
-2.33306 0.780603 -1.29252
-2.46393 0.865275 -1.45454
-2.5634 0.936685 -1.5859
-2.6386 0.995397 -1.69104
-2.69261 1.04041 -1.77017
-2.72114 1.06525 -1.81334
-1.59271 0.462573 0
-1.84463 0.550167 -0.272917
-2.16867 0.679771 -0.408372
-2.42619 0.799879 -0.479643
-2.62132 0.903568 -0.516893
-2.76979 0.991347 -0.535338
-2.88374 1.06481 -0.543167
-2.97063 1.12489 -0.545078
-3.03349 1.17079 -0.544072
-3.06687 1.19606 -0.542668
-1.76169 0.484238 0
-2.04743 0.558468 -0.0553221
-2.42761 0.660508 -0.0267549
-2.74376 0.748074 0.0391438
-2.9944 0.819154 0.117551
-3.19321 0.876533 0.1966
-3.3515 0.922824 0.27048
-3.47609 0.959625 0.335591
-3.56858 0.987148 0.38795
-3.61856 1.00209 0.417689
-1.90806 0.446118 0
-2.23364 0.502417 0.111362
-2.67639 0.575082 0.23844
-3.05353 0.632795 0.368826
-3.35868 0.676355 0.491229
-3.60479 0.709323 0.601247
-3.80339 0.734478 0.697388
-3.96138 0.753556 0.778537
-4.07964 0.767292 0.841955
-4.1439 0.77456 0.877369
-2.00962 0.362013 0
-2.36908 0.404912 0.236973
-2.85747 0.462004 0.43263
-3.27083 0.509044 0.603037
-3.60222 0.545761 0.749009
-3.86693 0.574375 0.872825
-4.07864 0.596761 0.976828
-4.24575 0.614098 1.06218
-4.37005 0.626794 1.12757
-4.43729 0.633589 1.16363
-2.03403 0.244782 0
-2.41256 0.270881 0.330248
-2.92208 0.308582 0.589384
-3.3459 0.34256 0.807868
-3.67883 0.371165 0.991098
-3.93946 0.394867 1.14419
-4.14407 0.414353 1.27135
-4.30297 0.430058 1.3748
-4.41958 0.441919 1.45356
-4.48208 0.448399 1.49681
-1.95502 0.112424 0
-2.33303 0.109345 0.366292
-2.84126 0.104276 0.655121
-3.26146 0.0990286 0.899514
-3.58856 0.0940986 1.10488
-3.84201 0.0896569 1.27664
-4.03894 0.0857643 1.41937
-4.1904 0.0824698 1.53552
-4.30062 0.0798893 1.62394
-4.35935 0.078446 1.6725
-1.76693 -0.00574323 0
-2.1219 -0.0434691 0.312852
-2.60575 -0.104035 0.549988
-3.01226 -0.164568 0.743077
-3.33331 -0.219703 0.900431
-3.58519 -0.268159 1.02894
-3.78299 -0.309809 1.13376
-3.93648 -0.344535 1.21784
-4.04897 -0.37143 1.28114
-4.1092 -0.386364 1.31567
-1.49094 -0.0794119 0
-1.79935 -0.138972 0.177405
-2.23048 -0.234094 0.278856
-2.60509 -0.328837 0.334745
-2.91094 -0.415006 0.362298
-3.15826 -0.490706 0.373027
-3.35766 -0.555778 0.37411
-3.51592 -0.610046 0.370093
-3.63404 -0.652091 0.364243
-3.69807 -0.675442 0.360041
-1.1669 -0.0955271 0
-1.41152 -0.154118 0.0138267
-1.7636 -0.242953 -0.0439953
-2.0821 -0.327247 -0.147974
-2.35258 -0.401308 -0.271813
-2.57899 -0.464812 -0.398899
-2.76699 -0.518461 -0.519638
-2.91984 -0.562645 -0.627448
-3.03612 -0.59657 -0.714998
-3.09996 -0.615305 -0.765036
-0.834891 -0.0618518 0
-1.01154 -0.103775 -0.119903
-1.27247 -0.158732 -0.288135
-1.51696 -0.202225 -0.492224
-1.73154 -0.234362 -0.705813
-1.91623 -0.257936 -0.912123
-2.07305 -0.275285 -1.10162
-2.20286 -0.287959 -1.26736
-2.30296 -0.296769 -1.40018
-2.35841 -0.301308 -1.47552
-0.521035 0.00480226 0
-0.634777 -0.017261 -0.20001
-0.804776 -0.0371123 -0.40445
-0.96653 -0.0415661 -0.618738
-1.11042 -0.0349706 -0.827685
-1.23556 -0.0222233 -1.0217
-1.34268 -0.00677814 -1.19562
-1.43189 0.00893134 -1.34531
-1.50098 0.0227222 -1.46399
-1.53936 0.0309557 -1.53088
-0.237021 0.0885972 0
-0.296927 0.084517 -0.231455
-0.384292 0.0878078 -0.423182
-0.464863 0.101678 -0.593577
-0.534461 0.122078 -0.742027
-0.593481 0.145272 -0.869398
-0.642945 0.168699 -0.977195
-0.683433 0.190479 -1.06609
-0.714376 0.208653 -1.13441
-0.731412 0.219212 -1.17216
0.0131851 0.174792 0
-0.00850672 0.189826 -0.221511
-0.0376425 0.211215 -0.389504
-0.0611322 0.230823 -0.522766
-0.0786182 0.247813 -0.627023
-0.091424 0.262286 -0.70833
-0.10077 0.274464 -0.771647
-0.10751 0.284461 -0.820272
-0.112125 0.292118 -0.85552
-0.114473 0.29634 -0.874227
0.230236 0.244994 0
0.222973 0.281978 -0.165901
0.207766 0.327478 -0.307041
0.191378 0.36022 -0.429604
0.176468 0.381497 -0.533341
0.163594 0.394646 -0.620219
0.152721 0.402345 -0.692365
0.143783 0.406469 -0.751005
0.136927 0.408336 -0.795584
0.129788 0.409019 -0.84011
0.421027 0.276554 0
0.406482 0.331596 -0.0623412
0.361687 0.402252 -0.153518
0.302182 0.457414 -0.257329
0.240551 0.497913 -0.361514
0.182511 0.527523 -0.459892
0.130479 0.549266 -0.549178
0.0858781 0.56512 -0.626782
0.0506832 0.576121 -0.688783
0.0114917 0.587271 -0.757007
0.597872 0.249351 0
0.572758 0.308265 0.0698357
0.488058 0.387693 0.058693
0.371205 0.455645 0.010793
0.248056 0.511597 -0.0515053
0.131174 0.557815 -0.117088
0.0260754 0.596069 -0.180109
-0.0640593 0.627241 -0.236752
-0.135142 0.651057 -0.28295
-0.209739 0.675794 -0.330607
0.770481 0.15526 0
0.755749 0.198036 0.190008
0.666682 0.256446 0.26165
0.528513 0.308658 0.28714
0.376469 0.354229 0.294642
0.22912 0.394075 0.295383
0.0951138 0.428716 0.293889
-0.0205669 0.458096 0.291993
-0.119224 0.483074 0.29075
-0.222371 0.509445 0.292265
0.935325 0.00487559 0
0.965705 0.013966 0.252869
0.937818 0.023204 0.364829
0.850796 0.0297343 0.430166
0.739231 0.0351845 0.481057
0.623958 0.0402566 0.52728
0.515534 0.0450719 0.570849
0.420073 0.0494981 0.610864
0.293033 0.0545882 0.672912
0.211134 0.0578154 0.714354
1.07263 -0.173244 0
1.17638 -0.204357 0.229531
1.27176 -0.253462 0.308386
1.31254 -0.302058 0.340899
1.32029 -0.346517 0.36362
1.31174 -0.386116 0.386878
1.29627 -0.420735 0.412151
1.2737 -0.468085 0.452678
1.25049 -0.517247 0.497296
1.2372 -0.543864 0.522701
1.15598 -0.343546 0
1.33334 -0.406783 0.123366
1.56831 -0.49717 0.105669
1.76906 -0.580042 0.041978
1.9364 -0.652723 -0.0292775
2.07708 -0.716054 -0.0952852
2.21466 -0.779881 -0.162965
2.41565 -0.875044 -0.267507
2.56428 -0.945887 -0.34392
2.6446 -0.984336 -0.384769
1.16762 -0.477857 0
1.38317 -0.556878 -0.0313914
1.70263 -0.658808 -0.157655
2.01032 -0.74127 -0.315423
2.2904 -0.805789 -0.473958
2.53997 -0.856891 -0.621719
2.85862 -0.91211 -0.81913
3.22762 -0.970821 -1.05217
3.50303 -1.01372 -1.22664
3.65268 -1.0367 -1.32163
1.10674 -0.56195 0
1.31011 -0.645263 -0.197332
1.62135 -0.743702 -0.400079
1.93046 -0.812661 -0.593033
2.21729 -0.85754 -0.765688
2.47553 -0.886168 -0.916485
2.79308 -0.904608 -1.09205
3.18272 -0.916563 -1.30033
3.47346 -0.923455 -1.45523
3.63137 -0.926452 -1.53919
0.985736 -0.591437 0
1.13972 -0.678157 -0.364381
1.37267 -0.782763 -0.626717
1.60218 -0.858646 -0.826154
1.81386 -0.910388 -0.977565
2.00339 -0.945421 -1.09324
2.17447 -0.969488 -1.18376
2.46241 -0.995527 -1.29801
2.67661 -1.0128 -1.3797
2.79271 -1.02139 -1.42275
0.821186 -0.56325 0
0.909342 -0.65322 -0.542436
1.03472 -0.774283 -0.896527
1.15324 -0.877401 -1.15033
1.26048 -0.961595 -1.33654
1.35561 -1.03037 -1.47556
1.43842 -1.08662 -1.58045
1.54061 -1.15289 -1.68275
1.6487 -1.22185 -1.77786
1.70722 -1.25878 -1.82773
0.628602 -0.472497 0
0.649617 -0.551875 -0.721772
0.667196 -0.669047 -1.20876
0.677366 -0.779719 -1.5825
0.685441 -0.878118 -1.88005
0.693266 -0.963976 -2.12129
0.701057 -1.03782 -2.31802
0.708469 -1.09962 -2.47624
0.72319 -1.17947 -2.66284
0.734129 -1.23349 -2.7857
0.422666 -0.320701 0
0.386627 -0.362582 -0.851011
0.316916 -0.427171 -1.45024
0.243732 -0.490634 -1.93506
0.178706 -0.5485 -2.33982
0.124341 -0.599767 -2.68103
0.0801688 -0.644268 -2.96806
0.0452983 -0.681724 -3.20462
0.0195565 -0.71097 -3.38672
0.00468423 -0.731974 -3.51394
				 </DataArray>
			 </PointData>
			 <Points>
				 <DataArray type="Float64" NumberOfComponents="3" format="ascii">
   -882.6850    -882.6850     -76.4000
   -882.6850    -882.6850     -43.8574
   -882.6850    -882.6850     -27.7245
   -882.6850    -882.6850     -18.2618
   -882.6850    -882.6850     -12.1026
   -882.6850    -882.6850      -7.8121
   -882.6850    -882.6850      -4.6973
   -882.6850    -882.6850      -2.4066
   -882.6850    -882.6850      -0.7883
   -882.6850    -882.6850       0.0592
   -882.6850    -846.6570     -76.4000
   -882.6850    -846.6570     -44.6410
   -882.6850    -846.6570     -28.8967
   -882.6850    -846.6570     -19.6619
   -882.6850    -846.6570     -13.6510
   -882.6850    -846.6570      -9.4638
   -882.6850    -846.6570      -6.4240
   -882.6850    -846.6570      -4.1885
   -882.6850    -846.6570      -2.6092
   -882.6850    -846.6570      -1.7821
   -882.6850    -810.6291     -76.4000
   -882.6850    -810.6291     -45.0331
   -882.6850    -810.6291     -29.4832
   -882.6850    -810.6291     -20.3623
   -882.6850    -810.6291     -14.4256
   -882.6850    -810.6291     -10.2901
   -882.6850    -810.6291      -7.2878
   -882.6850    -810.6291      -5.0799
   -882.6850    -810.6291      -3.5201
   -882.6850    -810.6291      -2.7032
   -882.6850    -774.6011     -76.4000
   -882.6850    -774.6011     -45.0760
   -882.6850    -774.6011     -29.5473
   -882.6850    -774.6011     -20.4389
   -882.6850    -774.6011     -14.5104
   -882.6850    -774.6011     -10.3806
   -882.6850    -774.6011      -7.3823
   -882.6850    -774.6011      -5.1775
   -882.6850    -774.6011      -3.6198
   -882.6850    -774.6011      -2.8040
   -882.6850    -738.5732     -76.4000
   -882.6850    -738.5732     -45.0616
   -882.6850    -738.5732     -29.5258
   -882.6850    -738.5732     -20.4133
   -882.6850    -738.5732     -14.4820
   -882.6850    -738.5732     -10.3503
   -882.6850    -738.5732      -7.3507
   -882.6850    -738.5732      -5.1448
   -882.6850    -738.5732      -3.5864
   -882.6850    -738.5732      -2.7702
   -882.6850    -702.5452     -76.4000
   -882.6850    -702.5452     -45.1426
   -882.6850    -702.5452     -29.6469
   -882.6850    -702.5452     -20.5579
   -882.6850    -702.5452     -14.6419
   -882.6850    -702.5452     -10.5209
   -882.6850    -702.5452      -7.5291
   -882.6850    -702.5452      -5.3289
   -882.6850    -702.5452      -3.7745
   -882.6850    -702.5452      -2.9605
   -882.6850    -666.5172     -76.4000