<?xml version="1.0"?>
<VTKFile type="UnstructuredGrid" version="1.0" byte_order="LittleEndian" header_type="UInt64">
	 <UnstructuredGrid>
		 <FieldData> 
			 <DataArray type = "Float64" Name = "TimeValue" NumberOfTuples = "1" format = "ascii" RangeMin = "1.000" RangeMax = "1.000"> 
			 1.000 
			 </DataArray > 
		 </FieldData> 
		 <Piece NumberOfPoints="1000" NumberOfCells="441">
			 <PointData Scalars="scalars">
				 <DataArray type="Float64" NumberOfComponents="3" Name="Velocity" format="ascii">
1.28332 -0.534312 0
1.5612 -0.638089 -0.21199
1.95827 -0.782514 -0.3953
2.3186 -0.90709 -0.537807
2.62783 -1.00763 -0.640008
2.88993 -1.08772 -0.710861
3.26654 -1.18645 -0.79375
3.61719 -1.27424 -0.863364
3.87587 -1.33769 -0.90993
4.01529 -1.37137 -0.933234
1.29317 -0.487893 0
1.59389 -0.570667 -0.4153
2.0526 -0.685284 -0.743481
2.50268 -0.784658 -0.997059
2.91566 -0.865938 -1.1831
3.28474 -0.931803 -1.31642
3.92576 -1.02103 -1.47174
4.45012 -1.09166 -1.5851
4.84221 -1.14325 -1.66177
5.05547 -1.17085 -1.70043
1.19151 -0.418049 0
1.45496 -0.470169 -0.551723
1.86485 -0.540631 -0.97242
2.27408 -0.602377 -1.30311
2.65336 -0.655057 -1.55732
2.99406 -0.700182 -1.75142
3.54121 -0.76938 -1.97913
4.03418 -0.831178 -2.16725
4.40257 -0.877216 -2.3007
4.60287 -0.902211 -2.37058
0.979764 -0.3368 0
1.14699 -0.35871 -0.606679
1.40082 -0.385411 -1.05271
1.64675 -0.408193 -1.40903
1.86822 -0.428789 -1.69607
2.06217 -0.448006 -1.92882
2.25736 -0.469984 -2.14266
2.54653 -0.507766 -2.42426
2.76033 -0.536295 -2.63008
2.87571 -0.551945 -2.7403
0.691177 -0.255926 0
0.751051 -0.256427 -0.600615
0.840812 -0.250228 -1.01976
0.928113 -0.239885 -1.35024
1.00697 -0.229006 -1.61934
1.07588 -0.219104 -1.84189
1.13473 -0.210641 -2.02658
1.19262 -0.203013 -2.19853
1.27794 -0.194015 -2.42422
1.32369 -0.1892 -2.54564
0.374865 -0.181048 0
0.354324 -0.169726 -0.562479
0.337176 -0.142705 -0.920118
0.338294 -0.107773 -1.1794
0.352427 -0.0706701 -1.37718
0.373261 -0.0346096 -1.53276
0.396416 -0.00135169 -1.65699
0.418907 0.0278303 -1.75547
0.438239 0.0514239 -1.82958
0.463114 0.0779532 -1.90897
0.0687939 -0.109488 0
-0.00343374 -0.0944179 -0.511837
-0.0827161 -0.0618558 -0.790757
-0.125166 -0.0208456 -0.952708
-0.138755 0.0226697 -1.04704
-0.134764 0.0651449 -1.10113
-0.121322 0.104508 -1.13083
-0.103949 0.139192 -1.14564
-0.0870296 0.167153 -1.15163
-0.076424 0.183076 -1.15306
-0.215074 -0.0335681 0
-0.331022 -0.0185256 -0.46136
-0.47658 0.00693143 -0.676398
-0.584285 0.0338624 -0.765073
-0.657981 0.0595516 -0.784522
-0.707778 0.0829528 -0.766999
-0.741398 0.103633 -0.731176
-0.763872 0.121248 -0.688754
-0.778196 0.135111 -0.648886
-0.785079 0.142889 -0.6243
-0.481673 0.0513332 0
-0.649815 0.0708065 -0.411119
-0.888929 0.0936984 -0.597007
-1.10128 0.108497 -0.671485
-1.27863 0.116404 -0.687254
-1.4252 0.119697 -0.672661
-1.54574 0.120151 -0.643488
-1.64307 0.119018 -0.609311
-1.71676 0.11727 -0.57742
-1.7571 0.115989 -0.557841
-0.731113 0.138084 0
-0.956736 0.171179 -0.342162
-1.29414 0.210587 -0.507682
-1.60984 0.23707 -0.593345
-1.88427 0.252546 -0.638561
-2.11775 0.260612 -0.66223
-2.31387 0.264015 -0.673994
-2.4747 0.264643 -0.679081
-2.59781 0.26387 -0.680574
-2.66567 0.262995 -0.680593
-0.944419 0.205485 0
-1.21953 0.254977 -0.233791
-1.63093 0.321484 -0.344077
-2.01376 0.376343 -0.405665
-2.34378 0.418885 -0.445511
-2.62209 0.451699 -0.474328
-2.85396 0.477074 -0.496628
-3.04275 0.496501 -0.514269
-3.18643 0.510579 -0.527617
-3.26531 0.518058 -0.534969
-1.08648 0.227912 0
-1.39248 0.281189 -0.0950179
-1.84402 0.356871 -0.10857
-2.25711 0.424397 -0.0948456
-2.60754 0.48115 -0.0744806
-2.899 0.528313 -0.05446
-3.13903 0.567276 -0.0369634
-3.33261 0.598849 -0.0226264
-3.47882 0.622812 -0.0118318
-3.5587 0.635952 -0.00598565
-1.12145 0.194231 0
-1.43312 0.229034 0.0242542
-1.89134 0.275753 0.0978793
-2.30924 0.315478 0.185495
-2.66307 0.347916 0.270124
-2.95699 0.37445 0.346099
-3.19886 0.396193 0.411854
-3.39384 0.413744 0.466728
-3.54106 0.427047 0.509169
-3.62148 0.434339 0.532692
-1.03132 0.11869 0
-1.31821 0.122593 0.0712334
-1.74377 0.118149 0.159586
-2.13738 0.105401 0.249322
-2.47555 0.0891714 0.331547
-2.76024 0.0723706 0.403793
-2.99721 0.056498 0.465749
-3.19009 0.0424525 0.517265
-3.33686 0.0311462 0.557067
-3.41743 0.0247254 0.579128
-0.829171 0.0285693 0
-1.0583 0.00932288 0.040521
-1.40048 -0.0313966 0.062789
-1.7217 -0.0800838 0.0703311
-2.00243 -0.129146 0.0684496
-2.24257 -0.175014 0.0614631
-2.44527 -0.216078 0.052171
-2.61217 -0.25129 0.0424221
-2.74034 -0.279098 0.0337547
-2.81114 -0.294722 0.0285535
-0.557871 -0.0587516 0
-0.703513 -0.0839314 -0.0271066
-0.914846 -0.126663 -0.0993457
-1.10957 -0.171213 -0.201385
-1.27861 -0.212873 -0.314085
-1.42314 -0.250118 -0.425616
-1.54542 -0.282513 -0.529356
-1.64644 -0.309751 -0.620731
-1.72426 -0.330974 -0.694263
-1.76735 -0.342802 -0.736063
-0.271909 -0.143675 0
-0.327635 -0.167243 -0.0904447
-0.392718 -0.194054 -0.221407
-0.438405 -0.21088 -0.38181
-0.469054 -0.219684 -0.549806
-0.489901 -0.223295 -0.711776
-0.504366 -0.223778 -0.860182
-0.514465 -0.222543 -0.989667
-0.521254 -0.220653 -1.09323
-0.524678 -0.219273 -1.15188
-0.0160888 -0.232248 0
0.00352105 -0.265884 -0.150348
0.0546284 -0.297068 -0.290707
0.122611 -0.307847 -0.433028
0.195276 -0.304478 -0.569055
0.265846 -0.293242 -0.693279
0.330735 -0.278362 -0.803036
0.387472 -0.262707 -0.896348
0.441787 -0.246259 -0.980758
0.497107 -0.229597 -1.05893
0.182468 -0.319012 0
0.257294 -0.382894 -0.251668
0.38261 -0.45839 -0.413464
0.510928 -0.510467 -0.533608
0.629431 -0.543414 -0.625385
0.734654 -0.563634 -0.696041
0.825882 -0.575689 -0.750459
0.902508 -0.582518 -0.791784
1.01699 -0.588815 -0.841168
1.08277 -0.591796 -0.868472
0.308034 -0.380483 0
0.427131 -0.481539 -0.43597
0.615087 -0.617442 -0.698191
0.796002 -0.731094 -0.876403
0.954673 -0.821484 -1.00236
1.08984 -0.893425 -1.09334
1.20324 -0.950931 -1.15981
1.32016 -1.00734 -1.2182
1.45929 -1.07221 -1.28018
1.53406 -1.10681 -1.31227
0.347999 -0.385892 0
0.500375 -0.505749 -0.692266
0.752104 -0.673243 -1.13151
1.00558 -0.819196 -1.44787
1.23576 -0.939271 -1.68634
1.437 -1.03742 -1.87111
1.60914 -1.11752 -2.01628
1.83043 -1.2099 -2.18186
2.04894 -1.29715 -2.33767
2.16674 -1.34395 -2.4205
0.2924 -0.319408 0
0.445599 -0.42056 -0.945072
0.719298 -0.559057 -1.56133
1.01554 -0.676166 -2.01485
1.29933 -0.769393 -2.36283
1.55735 -0.843191 -2.63682
1.78456 -0.901679 -2.85528
2.08901 -0.965384 -3.10123
2.39079 -1.02336 -3.32885
2.55429 -1.05423 -3.4505
0.140359 -0.19744 0
0.238158 -0.250838 -1.09603
0.430211 -0.316583 -1.79491
0.652673 -0.364903 -2.2945
0.874801 -0.397986 -2.66666
1.08221 -0.420376 -2.9518
1.26817 -0.435493 -3.17377
1.42798 -0.445574 -3.34576
1.68256 -0.461169 -3.5593
1.82319 -0.469213 -3.6744
-0.0927731 -0.0634911 0
-0.0964317 -0.0755305 -1.11595
-0.0778436 -0.0849175 -1.79448
-0.0394188 -0.0869938 -2.2579
0.00719834 -0.0850053 -2.58973
0.0548537 -0.0811907 -2.83535
0.0997338 -0.0767689 -3.02093
0.139442 -0.0724428 -3.16112
0.171432 -0.0687579 -3.26194
0.189614 -0.0666007 -3.3153
-0.373765 0.040068 0
-0.483724 0.0402979 -1.07143
-0.643781 0.0404876 -1.70498
-0.791935 0.0390786 -2.13215
-0.921106 0.0360009 -2.43777
-1.03195 0.0318449 -2.66521
-1.12601 0.027217 -2.83844
-1.20389 0.022641 -2.97047
-1.264 0.0186649 -3.06621
-1.29733 0.0162991 -3.1172
-0.659644 0.0995066 0
-0.84945 0.091484 -1.04101
-1.1317 0.0752564 -1.66323
-1.39663 0.0559786 -2.09394
-1.62879 0.0363907 -2.41221
-1.82809 0.0178752 -2.6568
-1.99689 0.00112626 -2.84864
-2.13631 -0.0133631 -2.99859
-2.24365 -0.0248863 -3.1096
-2.30305 -0.0313912 -3.16955
-0.911067 0.132356 0
-1.15042 0.1153 -1.05129
-1.49756 0.0868668 -1.69599
-1.8143 0.0588243 -2.15356
-2.08527 0.0341701 -2.49832
-2.31348 0.0133138 -2.76714
-2.50389 -0.0039995 -2.98027
-2.65933 -0.0180114 -3.1482
-2.77794 -0.0286079 -3.27324
-2.8432 -0.0343976 -3.34101
-1.09866 0.166807 0
-1.36917 0.152685 -1.08005
-1.7536 0.130535 -1.75248
-2.09642 0.110787 -2.23049
-2.38407 0.0953135 -2.58798
-2.6226 0.0836805 -2.86373
-2.81921 0.0750812 -3.07987
-2.97817 0.0688479 -3.24838
-3.09859 0.0645772 -3.37272
-3.16453 0.0624083 -3.43969
-1.19907 0.218591 0
-1.48982 0.220342 -1.09008
-1.9018 0.220432 -1.77266
-2.26784 0.219746 -2.25349
-2.57396 0.219498 -2.60691
-2.82709 0.219896 -2.87415
-3.03525 0.220789 -3.07957
-3.20326 0.221948 -3.23689
-3.33036 0.223109 -3.35124
-3.3999 0.223853 -3.41218
-1.19264 0.283523 0
-1.48603 0.307977 -1.06041
-1.90206 0.337577 -1.73298
-2.27182 0.359393 -2.20907
-2.58105 0.37478 -2.55858
-2.83676 0.38576 -2.82173
-3.04705 0.393726 -3.02287
-3.21677 0.399515 -3.17601
-3.34518 0.403541 -3.28672
-3.41544 0.405622 -3.34549
-1.07285 0.346561 0
-1.33831 0.395224 -0.98849
-1.70604 0.457563 -1.63427
-2.02377 0.505665 -2.1055
-2.28293 0.540369 -2.46074
-2.49286 0.565246 -2.73432
-2.66266 0.583145 -2.94748
-2.79792 0.595937 -3.11239
-2.89924 0.604653 -3.23315
-2.95432 0.609075 -3.29781
-0.858786 0.394191 0
-1.06094 0.46446 -0.876036
-1.31357 0.559822 -1.4707
-1.50207 0.638764 -1.92492
-1.63319 0.699778 -2.28237
-1.72365 0.746488 -2.56828
-1.78623 0.78226 -2.79837
-1.8292 0.809364 -2.98128
-1.85737 0.828813 -3.11816
-1.87124 0.839068 -3.19254
-0.592917 0.421748 0
-0.708126 0.504263 -0.72538
-0.801593 0.621459 -1.23
-0.808596 0.724552 -1.63003
-0.75706 0.80929 -1.95705
-0.674829 0.878032 -2.22768
-0.580716 0.933531 -2.45193
-0.487681 0.977591 -2.63454
-0.407374 1.01047 -2.77382
-0.359884 1.02829 -2.85046
-0.32262 0.434768 0
-0.355964 0.515899 -0.551625
-0.315938 0.632206 -0.932188
-0.184133 0.736821 -1.23521
-0.00034747 0.82527 -1.48556
0.202947 0.899119 -1.69517
0.404738 0.960361 -1.87073
0.590063 1.01014 -2.01501
0.743388 1.04802 -2.12586
0.836846 1.06968 -2.18923
-0.0831822 0.442507 0
-0.0630094 0.514985 -0.380802
0.0318289 0.616229 -0.635726
0.187194 0.705383 -0.833312
0.370384 0.779804 -0.993085
0.55853 0.841488 -1.12457
0.737754 0.892431 -1.23317
0.8982 0.933748 -1.32141
1.05525 0.969281 -1.3984
1.20188 0.997732 -1.46194
0.1052 0.448283 0
0.15414 0.512761 -0.226971
0.252722 0.599783 -0.376165
0.367923 0.673734 -0.488848
0.482591 0.73362 -0.577721
0.588833 0.781993 -0.649286
0.683235 0.821079 -0.707317
0.763667 0.852202 -0.753766
0.85211 0.882851 -0.802102
0.921104 0.905291 -0.838979
0.232748 0.447283 0
0.299738 0.504321 -0.0919152
0.400774 0.577525 -0.157611
0.493135 0.636825 -0.208248
0.569865 0.683205 -0.248177
0.631716 0.71974 -0.280289
0.680884 0.748714 -0.306366
0.719161 0.771462 -0.327318
0.761811 0.797102 -0.352176
0.790849 0.814652 -0.369529
0.298643 0.432636 0
0.378955 0.480862 0.0208427
0.497083 0.535259 0.00825982
0.606178 0.572703 -0.0111715
0.700393 0.597933 -0.0295382
0.780344 0.615482 -0.0452974
0.847466 0.628079 -0.0584283
0.90253 0.637228 -0.0690949
0.976385 0.647563 -0.083154
1.02177 0.653641 -0.0917621
0.313864 0.400997 0
0.402215 0.443482 0.110316
0.540426 0.482273 0.109956
0.679561 0.498384 0.0738038
0.809962 0.500645 0.0302507
0.928485 0.495945 -0.0112923
1.03364 0.488218 -0.0478798
1.12375 0.479735 -0.0784826
1.25449 0.464143 -0.12477
1.33145 0.454633 -0.151845
0.302177 0.35103 0
0.394399 0.398611 0.194954
0.542429 0.443811 0.186544
0.692697 0.463055 0.101269
0.832711 0.465145 -0.00536708
0.958591 0.458002 -0.111393
1.06899 0.446555 -0.208122
1.16259 0.433886 -0.291367
1.28328 0.414011 -0.407525
1.35914 0.400892 -0.481422
0.294648 0.277476 0
0.392732 0.338854 0.30687
0.544937 0.413864 0.324464
0.68816 0.46768 0.220119
0.81012 0.503109 0.0728827
0.910539 0.525825 -0.0821148
0.991851 0.540112 -0.2289
1.05617 0.548806 -0.358672
1.11868 0.557091 -0.51323
1.16061 0.562873 -0.62745
0.319071 0.171361 0
0.431839 0.240107 0.457293
0.599117 0.342233 0.572552
0.744093 0.435948 0.533703
0.855481 0.515452 0.429491
0.937216 0.581492 0.302318
0.995694 0.635782 0.173176
1.03636 0.679488 0.0541924
1.06502 0.727301 -0.0812362
1.08058 0.763898 -0.184459
0.390313 0.0299047 0
0.527445 0.083748 0.614621
0.727982 0.178724 0.883828
0.899933 0.280873 0.99441
1.03168 0.378459 1.02701
1.12879 0.46706 1.02108
1.19904 0.545012 0.996916
1.24871 0.611131 0.965986
1.29518 0.697064 0.926326
1.32209 0.752798 0.900094
0.507475 -0.134443 0
0.671739 -0.122014 0.715696
0.912056 -0.0827768 1.12913
1.12389 -0.0260225 1.40914
1.29504 0.0372236 1.61518
1.43058 0.100166 1.77462
1.53728 0.158963 1.90122
1.62821 0.215944 2.01211
1.7515 0.29635 2.16848
1.81671 0.340378 2.25198
0.658656 -0.295851 0
0.843414 -0.338729 0.702158
1.10928 -0.386547 1.1669
1.34446 -0.415787 1.53641
1.53881 -0.430708 1.84808
1.6979 -0.436673 2.11583
1.82789 -0.437408 2.34554
1.98665 -0.433347 2.62568
2.15421 -0.42699 2.919
2.24383 -0.423047 3.0779
0.828175 -0.426797 0
1.02373 -0.516161 0.561922
1.29272 -0.640417 0.948306
1.52013 -0.748848 1.2714
1.70136 -0.838604 1.55503
1.84555 -0.912543 1.80548
1.96082 -0.973361 2.02434
2.12258 -1.05529 2.34505
2.26226 -1.12583 2.62815
2.33675 -1.1637 2.78195
1.00003 -0.510841 0
1.20535 -0.623405 0.337594
1.47425 -0.784068 0.557335
1.68739 -0.928427 0.739413
1.84564 -1.05081 0.900522
1.96261 -1.15347 1.04394
2.04958 -1.23907 1.16994
2.16588 -1.37595 1.37957
2.2506 -1.48022 1.54182
2.29483 -1.53628 1.63002
1.15527 -0.54658 0
1.3837 -0.662126 0.0864231
1.68374 -0.825035 0.118177
1.92419 -0.968534 0.14279
2.10506 -1.08742 0.169852
2.24029 -1.18488 0.198759
2.35929 -1.28256 0.232326
2.49742 -1.41096 0.27621
2.59493 -1.50463 0.310458
2.64584 -1.55471 0.329594
1.26682 -0.540962 0
1.53481 -0.648117 -0.156888
1.91054 -0.797427 -0.300834
2.24291 -0.926412 -0.413511
2.52124 -1.03072 -0.493569
2.75221 -1.114 -0.548227
3.05776 -1.21424 -0.610592
3.35684 -1.30891 -0.666846
3.57617 -1.37736 -0.704288
3.69389 -1.41372 -0.72296
1.30036 -0.501568 0
1.59981 -0.590464 -0.371314
2.05098 -0.713803 -0.668305
2.48773 -0.820487 -0.89746
2.88426 -0.90721 -1.06439
3.23588 -0.976925 -1.1828
3.83333 -1.06865 -1.32133
4.32925 -1.14189 -1.42328
4.69939 -1.19515 -1.49179
4.90048 -1.22355 -1.52616
1.30423 -0.511633 0
1.60619 -0.605503 -0.0401629
2.02476 -0.728149 -0.0971599
2.38533 -0.824386 -0.133724
2.67802 -0.894057 -0.145091
2.91397 -0.943452 -0.137884
3.24509 -0.990967 -0.100765
3.54151 -1.02814 -0.0579753
3.75706 -1.05312 -0.0213301
3.87209 -1.06566 0.000327677
1.35622 -0.49472 0
1.6945 -0.577799 -0.224558
2.1903 -0.687215 -0.386619
2.64649 -0.775832 -0.478029
3.03873 -0.84349 -0.509304
3.3724 -0.895097 -0.498765
3.92522 -0.959149 -0.393466
4.35462 -1.00698 -0.295243
4.6711 -1.041 -0.212344
4.84153 -1.05885 -0.1637
1.28796 -0.458571 0
1.60011 -0.527701 -0.380316
2.06967 -0.622984 -0.643579
2.51426 -0.707927 -0.81514
2.90534 -0.781256 -0.914933
3.2414 -0.844574 -0.964996
3.78459 -0.950768 -0.956403
4.22437 -1.03751 -0.933931
4.54985 -1.10226 -0.908307
4.72561 -1.13746 -0.891063
1.1001 -0.405991 0
1.32082 -0.456236 -0.494736
1.65282 -0.526291 -0.841992
1.9693 -0.590983 -1.101
2.25015 -0.649331 -1.29582
2.49347 -0.701788 -1.44437
2.79809 -0.773171 -1.59721
3.13494 -0.855353 -1.7499
3.38428 -0.917081 -1.85949
3.51896 -0.950791 -1.91742
0.825752 -0.341085 0
0.932789 -0.369037 -0.557466
1.09468 -0.401608 -0.938116
1.25387 -0.42498 -1.22815
1.40047 -0.441503 -1.45755
1.53171 -0.453636 -1.64343
1.64665 -0.462855 -1.79564
1.81265 -0.475478 -1.98858
1.96896 -0.487133 -2.16353
2.0536 -0.493316 -2.25762
0.514593 -0.268693 0
0.526252 -0.277372 -0.570519
0.550393 -0.276073 -0.922309
0.585268 -0.26089 -1.16291
0.62671 -0.237836 -1.33527
0.670191 -0.211636 -1.46337
0.712372 -0.185288 -1.5609
0.750656 -0.160895 -1.6353
0.801489 -0.131661 -1.71431
0.840077 -0.110443 -1.76953
0.206622 -0.192174 0
0.149562 -0.192093 -0.553948
0.0719152 -0.18077 -0.848358
0.00944721 -0.159007 -1.00769
-0.0370934 -0.132088 -1.08953
-0.071625 -0.103782 -1.12684
-0.097484 -0.0764168 -1.13869
-0.116806 -0.0516601 -1.13662
-0.130572 -0.0313594 -1.12846
-0.137813 -0.0196842 -1.12167
-0.0831313 -0.110868 0
-0.194636 -0.111249 -0.536691
-0.360892 -0.111816 -0.801973
-0.516533 -0.11276 -0.927518
-0.652916 -0.114066 -0.975573
-0.77042 -0.115572 -0.981197
-0.870523 -0.117121 -0.964485
-0.953738 -0.118583 -0.937723
-1.01819 -0.119814 -0.909915
-1.05402 -0.120534 -0.892022
-0.358051 -0.0222946 0
-0.522262 -0.020806 -0.528403
-0.775076 -0.0284943 -0.812428
-1.01962 -0.045844 -0.976542
-1.2386 -0.0682233 -1.07329
-1.4296 -0.0921454 -1.13071
-1.59336 -0.115441 -1.16446
-1.72989 -0.136585 -1.18357
-1.83574 -0.153945 -1.1935
-1.89458 -0.163933 -1.19735
-0.619903 0.0701145 0
-0.837726 0.085059 -0.505226
-1.17012 0.0961202 -0.813078
-1.48609 0.0955757 -1.02989
-1.76328 0.0876461 -1.19242
-2.00035 0.0760827 -1.31882
-2.20008 0.0632907 -1.41894
-2.36414 0.0508771 -1.49782
-2.48984 0.0402816 -1.55658
-2.55916 0.0340555 -1.58844
-0.852177 0.15108 0
-1.11971 0.186001 -0.435864
-1.51902 0.231808 -0.716708
-1.88766 0.269029 -0.928694
-2.20212 0.297837 -1.09765
-2.46452 0.320203 -1.23564
-2.68102 0.337689 -1.34917
-2.85582 0.351248 -1.44124
-2.98794 0.361199 -1.51132
-3.06013 0.366535 -1.54984
-1.01816 0.198476 0
-1.32267 0.243792 -0.322742
-1.77176 0.308269 -0.521825
-2.18077 0.366134 -0.665916
-2.52558 0.415133 -0.77689
-2.81049 0.456155 -0.865095
-3.04369 0.490268 -0.936118
-3.23076 0.518064 -0.992761
-3.37144 0.539254 -1.03532
-3.44805 0.550907 -1.05852
-1.0749 0.199282 0
-1.39053 0.236364 -0.210235
-1.85691 0.285868 -0.328039
-2.28398 0.327102 -0.404673
-2.6465 0.359811 -0.458191
-2.94816 0.385765 -0.497242
-3.19669 0.406434 -0.526466
-3.3972 0.422707 -0.548382
-3.5487 0.434791 -0.564056
-3.63148 0.441324 -0.572319
-0.996903 0.16 0
-1.2849 0.17934 -0.142313
-1.71136 0.198105 -0.23201
-2.10494 0.206378 -0.300244
-2.44247 0.207473 -0.35534
-2.72622 0.204576 -0.400769
-2.96217 0.199742 -0.438361
-3.15407 0.194299 -0.468946
-3.3 0.1893 -0.492255
-3.3801 0.186253 -0.505074
-0.795832 0.097533 0
-1.01474 0.104759 -0.121467
-1.33111 0.106315 -0.233258
-1.61773 0.0991583 -0.347093
-1.86108 0.0871881 -0.457345
-2.06464 0.0733466 -0.559524
-2.23354 0.0594049 -0.651044
-2.37079 0.0465348 -0.729771
-2.47517 0.0358702 -0.792166
-2.53247 0.0297058 -0.82732
-0.518638 0.0224942 0
-0.640844 0.0270522 -0.11876
-0.794937 0.0330368 -0.256446
-0.913588 0.0381968 -0.413811
-1.00046 0.0426076 -0.575082
-1.06443 0.0464248 -0.729424
-1.11208 0.0497275 -0.870515
-1.14747 0.0525226 -0.993571
-1.17253 0.054723 -1.09203
-1.18563 0.0559602 -1.14782
-0.223083 -0.0649249 0
-0.248977 -0.064094 -0.11388
-0.243831 -0.0525629 -0.23976
-0.197846 -0.0312884 -0.381999
-0.130332 -0.00515185 -0.527281
-0.0553979 0.0222995 -0.666093
0.0185859 0.0488415 -0.792846
0.0860861 0.0728606 -0.903303
0.141607 0.0925615 -0.991621
0.174765 0.104243 -1.04311
0.0476681 -0.165425 0
0.0929142 -0.182911 -0.124552
0.197376 -0.193211 -0.217247
0.328852 -0.187784 -0.300663
0.465192 -0.172682 -0.375713
0.594921 -0.153002 -0.441744
0.712412 -0.132016 -0.498574
0.813957 -0.111968 -0.545949
0.941979 -0.0858519 -0.598075
1.03161 -0.0673927 -0.632823
0.271006 -0.268973 0
0.366348 -0.320894 -0.194386
0.524542 -0.38262 -0.295372
0.682752 -0.426518 -0.355522
0.824282 -0.455993 -0.392426
0.945784 -0.475806 -0.414672
1.0478 -0.489232 -0.427366
1.1386 -0.499164 -0.433514
1.26155 -0.511868 -0.433598
1.32751 -0.518306 -0.432843
0.433563 -0.350919 0
0.577385 -0.441602 -0.352253
0.799075 -0.561165 -0.537776
1.00595 -0.658973 -0.648226
1.18124 -0.735345 -0.717272
1.32537 -0.79526 -0.761329
1.44224 -0.842628 -0.789469
1.57764 -0.895743 -0.813654
1.71047 -0.947165 -0.833838
1.78117 -0.974545 -0.843567
0.519642 -0.380978 0
0.709789 -0.496457 -0.587254
1.01402 -0.651876 -0.918958
1.31253 -0.780438 -1.12996
1.57862 -0.880748 -1.27193
1.80802 -0.958844 -1.37126
2.00205 -1.01993 -1.44251
2.30335 -1.0975 -1.52649
2.53799 -1.15617 -1.58777
2.66428 -1.18732 -1.61951
0.511488 -0.342315 0
0.715106 -0.4521 -0.840133
1.05755 -0.599334 -1.32996
1.41285 -0.719531 -1.64413
1.74533 -0.811324 -1.8536
2.04364 -0.880933 -1.99765
2.31114 -0.934781 -2.09981
2.7424 -1.00304 -2.19965
3.06376 -1.05161 -2.26806
3.23813 -1.07711 -2.30305
0.400126 -0.24733 0
0.552531 -0.324373 -1.02886
0.813426 -0.427638 -1.63322
1.08851 -0.512899 -2.02045
1.34896 -0.579252 -2.27625
1.58466 -0.630665 -2.44946
1.79192 -0.670611 -2.56878
2.05796 -0.721859 -2.66598
2.31351 -0.770955 -2.73984
2.45238 -0.796868 -2.77703
0.197574 -0.133451 0
0.247446 -0.177251 -1.12055
0.331704 -0.239854 -1.78583
0.418132 -0.29757 -2.2259
0.497665 -0.348201 -2.53045
0.567904 -0.392043 -2.74843
0.628465 -0.429575 -2.90797
0.67908 -0.460891 -3.02505
0.725902 -0.493414 -3.12067
0.765927 -0.526736 -3.19588
-0.0604294 -0.0380891 0
-0.115857 -0.0669271 -1.15496
-0.202984 -0.113609 -1.85947
-0.289736 -0.162412 -2.35254
-0.369299 -0.209284 -2.71836
-0.439894 -0.25247 -2.99971
-0.501135 -0.29106 -3.22027
-0.552596 -0.324247 -3.39249
-0.592702 -0.350564 -3.51984
-0.615062 -0.365403 -3.58856
-0.326697 0.0256728 0
-0.457098 -0.00297919 -1.1863
-0.652173 -0.0494633 -1.93314
-0.834938 -0.0965641 -2.47951
-0.99395 -0.140052 -2.90283
-1.12926 -0.178738 -3.24087
-1.24287 -0.212336 -3.51419
-1.33598 -0.240589 -3.73299
-1.4072 -0.262618 -3.89791
-1.44643 -0.274904 -3.98801
-0.560724 0.0722463 0
-0.734788 0.0416183 -1.23555
-0.98386 -0.00510639 -2.02912
-1.20658 -0.0483092 -2.6184
-1.3932 -0.0847773 -3.07885
-1.54744 -0.114784 -3.44817
-1.67406 -0.139199 -3.74742
-1.77603 -0.158663 -3.98719
-1.85301 -0.173219 -4.16795
-1.89505 -0.181115 -4.26671
-0.736103 0.126798 0
-0.936508 0.103176 -1.28629
-1.21973 0.0672614 -2.11912
-1.47095 0.035088 -2.73458
-1.68087 0.00915435 -3.20996
-1.85434 -0.0111363 -3.58629
-1.99694 -0.0268429 -3.88748
-2.11197 -0.0387962 -4.1262
-2.19897 -0.0473814 -4.3046
-2.24655 -0.0519055 -4.40148
-0.834655 0.204045 0
-1.05144 0.201407 -1.30692
-1.36206 0.193967 -2.15896
-1.64342 0.185289 -2.78595
-1.88356 0.177443 -3.26535
-2.08579 0.170953 -3.64047
-2.25469 0.165788 -3.93735
-2.39273 0.161808 -4.17031
-2.4982 0.158937 -4.34298
-2.55628 0.157424 -4.43622
-0.841754 0.298214 0
-1.05897 0.328137 -1.2754
-1.37187 0.36651 -2.11721
-1.65783 0.397136 -2.74047
-1.9042 0.420597 -3.21774
-2.11344 0.438709 -3.59092
-2.28945 0.452828 -3.88578
-2.43416 0.463761 -4.11673
-2.54524 0.471777 -4.2876
-2.60659 0.476075 -4.37975
-0.753481 0.389049 0
-0.944577 0.456704 -1.18057
-1.20817 0.552122 -1.96817
-1.43771 0.6359 -2.5556
-1.6279 0.704951 -3.00738
-1.78474 0.761241 -3.36155
-1.91382 0.80694 -3.64186
-2.01825 0.84342 -3.86165
-2.09747 0.870773 -4.02438
-2.14092 0.885647 -4.11219
-0.587019 0.455924 0
-0.721129 0.555562 -1.01342
-0.871947 0.702756 -1.67826
-0.96604 0.838434 -2.16383
-1.01611 0.954753 -2.52976
-1.03842 1.05255 -2.81149
-1.0443 1.13388 -3.03103
-1.04115 1.20004 -3.20097
-1.03423 1.25036 -3.32552
-1.02884 1.27798 -3.39225
-0.378057 0.490323 0
-0.438129 0.601426 -0.786607
-0.446196 0.765919 -1.26263
-0.369399 0.918167 -1.57563
-0.24136 1.04932 -1.78634
-0.0910079 1.1601 -1.93106
0.0626641 1.25263 -2.03192
0.206223 1.32818 -2.10215
0.326269 1.38582 -2.14899
0.396067 1.41753 -2.1724
-0.165272 0.499281 0
-0.162557 0.59914 -0.550993
-0.071101 0.738292 -0.84079
0.107008 0.858395 -0.990894
0.330501 0.955707 -1.05916
0.567772 1.03384 -1.08032
0.798588 1.09647 -1.07527
1.00823 1.14595 -1.05709
1.18562 1.18375 -1.03314
1.36601 1.21973 -0.983958
0.0221457 0.495956 0
0.0624913 0.578037 -0.350496
0.1822 0.682168 -0.517787
0.355384 0.76102 -0.589437
0.550175 0.816325 -0.607879
0.745659 0.854528 -0.5976
0.929453 0.880812 -0.572926
1.09268 0.898668 -0.542834
1.28051 0.911571 -0.493151
1.42097 0.918767 -0.450794
0.165868 0.486785 0
0.226691 0.556639 -0.186437
0.340687 0.64196 -0.278492
0.468413 0.703804 -0.325904
0.592877 0.745254 -0.350204
0.706847 0.772467 -0.362206
0.807408 0.790101 -0.367527
0.892712 0.801249 -0.369235
0.995662 0.808868 -0.368031
1.06803 0.812803 -0.366438
0.255736 0.469223 0
0.331298 0.530359 -0.044892
0.444484 0.60589 -0.0711174
0.548539 0.664114 -0.0892585
0.636397 0.707668 -0.104002
0.708769 0.740776 -0.117178
0.767686 0.766329 -0.129271
0.814652 0.785989 -0.140131
0.871112 0.808662 -0.155514
0.908222 0.823382 -0.166154
0.290066 0.439124 0
0.380453 0.490936 0.0761335
0.511392 0.552019 0.108119
0.6298 0.597965 0.128187
0.730251 0.632828 0.144889
0.814417 0.660414 0.16004
0.884488 0.682825 0.173796
0.941671 0.700992 0.185861
1.01779 0.724873 0.203173
1.0644 0.739499 0.213988
0.277866 0.396538 0
0.385226 0.442374 0.175373
0.551126 0.489239 0.237193
0.712228 0.515906 0.265527
0.857284 0.529427 0.286149
0.984653 0.535671 0.305845
1.0946 0.538014 0.325585
1.18686 0.538341 0.344534
1.32209 0.535196 0.37348
1.40006 0.533078 0.39075
0.239083 0.343046 0
0.364504 0.394163 0.269924
0.572765 0.446242 0.338354
0.785502 0.472067 0.332273
0.981688 0.479009 0.302067
1.15551 0.474905 0.266674
1.30581 0.465039 0.233139
1.43169 0.45292 0.204249
1.61424 0.428285 0.15535
1.71701 0.413641 0.12784
0.20117 0.274359 0
0.341366 0.339937 0.391192
0.583529 0.420794 0.490809
0.834676 0.47777 0.46109
1.06558 0.513094 0.376646
1.26803 0.533204 0.272644
1.44089 0.543344 0.16649
1.58388 0.547239 0.0683119
1.77116 0.547242 -0.0876271
1.87905 0.546281 -0.180081
0.192431 0.179844 0
0.339657 0.252877 0.549676
0.593319 0.36004 0.748925
0.852755 0.456224 0.777242
1.08701 0.535813 0.720684
1.28872 0.600345 0.62479
1.45811 0.652241 0.514708
1.59621 0.693225 0.406182
1.75674 0.747692 0.241963
1.85299 0.780879 0.137438
0.23433 0.0531204 0
0.380204 0.109786 0.709642
0.619476 0.206219 1.0618
0.852673 0.307432 1.23646
1.05517 0.403026 1.31323
1.2241 0.489438 1.33551
1.36231 0.565398 1.32803
1.47262 0.629874 1.30588
1.59222 0.715336 1.26577
1.66706 0.771993 1.2368
0.336078 -0.0972229 0
0.477372 -0.0829375 0.805815
0.688235 -0.0456961 1.28932
0.874998 0.00531715 1.61927
1.02454 0.0615152 1.85785
1.14097 0.117494 2.03727
1.23073 0.170027 2.17537
1.29879 0.216709 2.28167
1.37375 0.279704 2.41116
1.42231 0.323313 2.49804
0.493563 -0.248085 0
0.63586 -0.287391 0.78889
0.826 -0.334838 1.30582
0.973585 -0.367903 1.70151
1.07676 -0.388595 2.02181
1.14651 -0.400832 2.28789
1.19283 -0.40759 2.51049
1.22284 -0.410886 2.69384
1.26158 -0.411323 2.95089
1.28408 -0.410993 3.10899
0.691792 -0.373343 0
0.847317 -0.456669 0.656338
1.04017 -0.575501 1.08876
1.17583 -0.681756 1.42588
1.25991 -0.771332 1.70438
1.30835 -0.846123 1.9398
1.33381 -0.908265 2.13947
1.34689 -0.967422 2.33463
1.35868 -1.04546 2.59795
1.36297 -1.08737 2.74019
0.908335 -0.457508 0
1.09239 -0.562058 0.44855
1.31779 -0.712357 0.720894
1.47652 -0.847974 0.919722
1.57681 -0.963194 1.0766
1.63708 -1.06 1.20486
1.67143 -1.14084 1.31095
1.69487 -1.2529 1.45302
1.70896 -1.35523 1.58181
1.71449 -1.41024 1.65115
1.11488 -0.50084 0
1.34475 -0.605828 0.220673
1.63797 -0.750738 0.325666
1.8619 -0.874311 0.388495
2.02132 -0.973281 0.432363
2.13399 -1.05193 0.465516
2.22391 -1.12412 0.493367
2.33034 -1.22173 0.523392
2.40365 -1.2923 0.545218
2.44125 -1.3298 0.556852
1.27648 -0.512539 0
1.56479 -0.608829 0.00764652
1.95799 -0.735479 -0.0218779
2.28963 -0.835799 -0.0444573
2.55344 -0.909281 -0.051353
2.7623 -0.962129 -0.0458082
3.03275 -1.01416 -0.0240882
3.28916 -1.05797 0.00283014
3.4746 -1.08789 0.0262855
3.57318 -1.10309 0.0402695
1.35404 -0.500628 0
1.68803 -0.586476 -0.182495
2.17218 -0.698747 -0.319948
2.61219 -0.788085 -0.396926
2.98671 -0.854513 -0.420665
3.30067 -0.903366 -0.407714
3.81554 -0.957869 -0.310248
4.2215 -0.998107 -0.217709
4.52004 -1.02608 -0.139889
4.68058 -1.04049 -0.0943243
				 </DataArray>
			 </PointData>
			 <Points>
				 <DataArray type="Float64" NumberOfComponents="3" format="ascii">
   -882.6850    -882.6850     -76.4000
   -882.6850    -882.6850     -40.6739
   -882.6850    -882.6850     -22.9629
   -882.6850    -882.6850     -12.5745
   -882.6850    -882.6850      -5.8128
   -882.6850    -882.6850      -1.1026
   -882.6850    -882.6850       2.3170
   -882.6850    -882.6850       4.8317
   -882.6850    -882.6850       6.6083
   -882.6850    -882.6850       7.5388
   -882.6850    -846.6570     -76.4000
   -882.6850    -846.6570     -40.2596
   -882.6850    -846.6570     -22.3432
   -882.6850    -846.6570     -11.8343
   -882.6850    -846.6570      -4.9942
   -882.6850    -846.6570      -0.2294
   -882.6850    -846.6570       3.2298
   -882.6850    -846.6570       5.7737
   -882.6850    -846.6570       7.5710
   -882.6850    -846.6570       8.5122
   -882.6850    -810.6291     -76.4000
   -882.6850    -810.6291     -40.5367
   -882.6850    -810.6291     -22.7577
   -882.6850    -810.6291     -12.3293
   -882.6850    -810.6291      -5.5416
   -882.6850    -810.6291      -0.8133
   -882.6850    -810.6291       2.6194
   -882.6850    -810.6291       5.1438
   -882.6850    -810.6291       6.9272
   -882.6850    -810.6291       7.8612
   -882.6850    -774.6011     -76.4000
   -882.6850    -774.6011     -41.5132
   -882.6850    -774.6011     -24.2183
   -882.6850    -774.6011     -14.0740
   -882.6850    -774.6011      -7.4711
   -882.6850    -774.6011      -2.8716
   -882.6850    -774.6011       0.4676
   -882.6850    -774.6011       2.9233
   -882.6850    -774.6011       4.6582
   -882.6850    -774.6011       5.5667
   -882.6850    -738.5732     -76.4000
   -882.6850    -738.5732     -42.6575
   -882.6850    -738.5732     -25.9298
   -882.6850    -738.5732     -16.1182
   -882.6850    -738.5732      -9.7319
   -882.6850    -738.5732      -5.2832
   -882.6850    -738.5732      -2.0535
   -882.6850    -738.5732       0.3217
   -882.6850    -738.5732       1.9996
   -882.6850    -738.5732       2.8784
   -882.6850    -702.5452     -76.4000
   -882.6850    -702.5452     -43.5141
   -882.6850    -702.5452     -27.2110
   -882.6850    -702.5452     -17.6485
   -882.6850    -702.5452     -11.4243
   -882.6850    -702.5452      -7.0885
   -882.6850    -702.5452      -3.9408
   -882.6850    -702.5452      -1.6260
   -882.6850    -702.5452       0.0094
   -882.6850    -702.5452       0.8658
   -882.6850    -666.5172     -76.4000
   -882.6850    -666.5172     -44.0934
   -882.6850    -666.5172     -28.0776
   -882.6850    -666.5172     -18.6835
   -882.6850    -666.5172     -12.5690
   -882.6850    -666.5172      -8.3097
   -882.6850    -666.5172      -5.2174