<?xml version="1.0"?>
<VTKFile type="UnstructuredGrid" version="1.0" byte_order="LittleEndian" header_type="UInt64">
	 <UnstructuredGrid>
		 <FieldData> 
			 <DataArray type = "Float64" Name = "TimeValue" NumberOfTuples = "1" format = "ascii" RangeMin = "6.000" RangeMax = "6.000"> 
			 6.000 
			 </DataArray > 
		 </FieldData> 
		 <Piece NumberOfPoints="1000" NumberOfCells="441">
			 <PointData Scalars="scalars">
				 <DataArray type="Float64" NumberOfComponents="3" Name="Velocity" format="ascii">
-0.363177 -0.0371006 0
-0.497655 -0.0106014 -0.440146
-0.701571 0.0362774 -0.641261
-0.895754 0.0873602 -0.738736
-1.06701 0.136878 -0.785927
-1.21426 0.182409 -0.807279
-1.33887 0.222882 -0.814918
-1.44158 0.257491 -0.815375
-1.52048 0.284802 -0.812645
-1.56406 0.300148 -0.810103
-0.581176 0.0645814 0
-0.750764 0.0979497 -0.353364
-1.00912 0.147544 -0.472218
-1.25758 0.19377 -0.488389
-1.47925 0.233892 -0.459013
-1.67201 0.268012 -0.41074
-1.83681 0.296674 -0.356793
-1.97384 0.320184 -0.304712
-2.07986 0.338186 -0.260575
-2.13869 0.348111 -0.234779
-0.705741 0.165742 0
-0.880013 0.202526 -0.264741
-1.14353 0.249183 -0.326525
-1.39515 0.284895 -0.302706
-1.61853 0.3105 -0.244796
-1.81214 0.328744 -0.17586
-1.97729 0.341787 -0.106805
-2.11442 0.351043 -0.0437385
-2.2204 0.357303 0.00800288
-2.27918 0.360461 0.0377039
-0.72805 0.25927 0
-0.870887 0.301808 -0.172864
-1.08012 0.353168 -0.191823
-1.27305 0.390035 -0.151608
-1.43938 0.414673 -0.0923299
-1.58017 0.430921 -0.0301906
-1.69805 0.441577 0.0280641
-1.7945 0.448451 0.0790513
-1.86821 0.452652 0.119688
-1.90881 0.454593 0.142604
-0.675691 0.337608 0
-0.767721 0.388824 -0.0644109
-0.896245 0.453147 -0.0288939
-1.00818 0.503154 0.0394496
-1.0995 0.540487 0.112231
-1.17298 0.568632 0.179557
-1.2318 0.590112 0.238299
-1.27809 0.606442 0.287295
-1.31236 0.618238 0.325049
-1.33082 0.624499 0.345895
-0.593507 0.392152 0
-0.644512 0.44967 0.0635896
-0.72118 0.522255 0.170285
-0.794882 0.579533 0.286169
-0.860424 0.623274 0.394126
-0.916914 0.65713 0.48905
-0.964631 0.683671 0.570045
-1.0038 0.704367 0.636933
-1.03375 0.71965 0.688265
-1.05023 0.727889 0.716573
-0.512206 0.414505 0
-0.545786 0.472544 0.196763
-0.615734 0.54147 0.366684
-0.704909 0.590623 0.515615
-0.800726 0.623842 0.642152
-0.894818 0.646396 0.748248
-0.982182 0.661888 0.836355
-1.05914 0.672525 0.907936
-1.12112 0.679529 0.962325
-1.15638 0.682997 0.992156
-0.430931 0.39755 0
-0.453326 0.452317 0.323488
-0.515075 0.513548 0.535217
-0.607003 0.552143 0.684435
-0.713955 0.573504 0.791449
-0.824076 0.584055 0.869597
-0.929579 0.588154 0.927423
-1.02459 0.588586 0.970083
-1.10229 0.587271 1.00007
-1.14692 0.58597 1.01566
-0.327027 0.337 0
-0.317652 0.385371 0.443023
-0.31727 0.440054 0.689291
-0.336643 0.475569 0.82917
-0.370745 0.496448 0.905423
-0.412728 0.508073 0.943854
-0.457176 0.514055 0.959946
-0.499801 0.516662 0.963242
-0.536132 0.517379 0.960202
-0.557514 0.517329 0.956576
-0.182723 0.234841 0
-0.110379 0.269844 0.549116
0.0170573 0.311527 0.835234
0.151395 0.3427 0.982685
0.276568 0.365882 1.05106
0.387542 0.383772 1.07484
0.483143 0.397962 1.07405
0.562785 0.409235 1.06086
0.624343 0.417728 1.04377
0.664363 0.422368 1.02964
-0.00573241 0.102101 0
0.146836 0.114502 0.618723
0.424648 0.12778 0.935919
0.732418 0.138073 1.10155
1.03309 0.147386 1.18477
1.31062 0.156455 1.22289
1.55781 0.165252 1.23629
1.76938 0.173419 1.23658
2.08213 0.180488 1.21246
2.25964 0.184637 1.19681
0.169865 -0.0432812 0
0.39009 -0.0561835 0.628679
0.775248 -0.0777018 0.939454
1.18832 -0.0989919 1.09656
1.58343 -0.117726 1.17472
1.94309 -0.133551 1.21194
2.26041 -0.146654 1.22766
2.70053 -0.164663 1.21592
3.10374 -0.180984 1.19694
3.32268 -0.189703 1.18563
0.29919 -0.181974 0
0.550992 -0.212995 0.583826
0.97104 -0.254303 0.855063
1.4015 -0.289844 0.972388
1.79919 -0.319899 1.01132
2.15196 -0.345643 1.0112
2.45722 -0.367757 0.992586
2.94499 -0.402419 0.918548
3.31751 -0.429047 0.857236
3.51916 -0.443546 0.822618
0.347368 -0.296794 0
0.588725 -0.337325 0.510045
0.984243 -0.379567 0.751135
1.38439 -0.403871 0.85259
1.75138 -0.41633 0.878298
2.07554 -0.422286 0.864238
2.35539 -0.424819 0.830775
2.80327 -0.424139 0.726933
3.14295 -0.423034 0.641928
3.32681 -0.422264 0.593836
0.30295 -0.373108 0
0.497403 -0.421331 0.421965
0.822244 -0.464461 0.664691
1.16109 -0.478002 0.81121
1.4813 -0.47221 0.898126
1.77146 -0.456367 0.947878
2.02716 -0.43631 0.97443
2.40122 -0.396804 0.976637
2.72864 -0.35987 0.970513
2.90648 -0.339242 0.965462
0.176226 -0.397725 0
0.298908 -0.456588 0.310848
0.512856 -0.517692 0.551702
0.74721 -0.548808 0.757105
0.977526 -0.557901 0.931302
1.19238 -0.553958 1.07775
1.38584 -0.543137 1.19967
1.58316 -0.525813 1.31293
1.85196 -0.495886 1.4517
1.99822 -0.478902 1.52624
-0.0130076 -0.358329 0
0.0279739 -0.423994 0.168201
0.108278 -0.508526 0.350009
0.204042 -0.574305 0.543455
0.3027 -0.62218 0.732094
0.3972 -0.656766 0.906497
0.483612 -0.681812 1.06199
0.558997 -0.699806 1.19512
0.625469 -0.712877 1.30943
0.698173 -0.723924 1.42634
-0.246068 -0.248451 0
-0.28498 -0.302968 0.0190522
-0.334886 -0.38409 0.0883549
-0.374815 -0.459849 0.187473
-0.406008 -0.525664 0.296685
-0.430977 -0.581634 0.404423
-0.451345 -0.628624 0.504363
-0.46788 -0.667136 0.592196
-0.48054 -0.696599 0.662758
-0.487544 -0.712832 0.702824
-0.506898 -0.0783986 0
-0.619473 -0.0979763 -0.0783363
-0.781311 -0.132397 -0.107437
-0.928538 -0.169941 -0.110436
-1.0553 -0.20639 -0.100085
-1.16334 -0.23992 -0.0836522
-1.25474 -0.269719 -0.0652178
-1.33039 -0.295183 -0.0473037
-1.38881 -0.315263 -0.0320401
-1.42122 -0.326539 -0.0230885
-0.776376 0.118578 0
-0.955748 0.145156 -0.0704452
-1.21192 0.180763 -0.111747
-1.44039 0.20995 -0.139693
-1.63181 0.232451 -0.159916
-1.79039 0.249737 -0.175206
-1.92107 0.263072 -0.187063
-2.02677 0.27327 -0.196264
-2.10691 0.280658 -0.203047
-2.15081 0.284584 -0.206704
-1.02643 0.296539 0
-1.26269 0.355991 0.043987
-1.59948 0.441075 0.0866925
-1.89724 0.517385 0.127028
-2.14342 0.58168 0.163209
-2.34434 0.635167 0.194845
-2.50751 0.679372 0.221998
-2.63776 0.715194 0.244636
-2.73541 0.742381 0.26218
-2.7885 0.757288 0.271927
-1.22105 0.421283 0
-1.49405 0.486323 0.206692
-1.88652 0.57497 0.366158
-2.23691 0.65064 0.501566
-2.52892 0.711978 0.617059
-2.76871 0.76153 0.715345
-2.96434 0.801575 0.798372
-3.12102 0.833476 0.866916
-3.23877 0.857382 0.919706
-3.30288 0.870383 0.948931
-1.32875 0.488644 0
-1.60574 0.542833 0.355479
-2.00491 0.608912 0.598522
-2.36389 0.657855 0.787116
-2.66579 0.692355 0.938669
-2.9159 0.716837 1.06254
-3.12156 0.73443 1.16426
-3.2874 0.747063 1.24655
-3.41272 0.75574 1.30904
-3.48121 0.760178 1.34333
-1.34108 0.517207 0
-1.5861 0.56614 0.481089
-1.93034 0.622215 0.772085
-2.23347 0.659764 0.971773
-2.48512 0.682953 1.11653
-2.69201 0.69688 1.2254
-2.86139 0.704998 1.30905
-2.99762 0.709471 1.37326
-3.1004 0.711676 1.42009
-3.15654 0.712466 1.44512
-1.27944 0.523122 0
-1.4696 0.583383 0.621376
-1.71486 0.660414 0.975215
-1.91042 0.721012 1.19942
-2.05917 0.766352 1.34848
-2.17283 0.800383 1.4512
-2.26046 0.82614 1.52373
-2.32759 0.845526 1.57519
-2.37635 0.85939 1.61023
-2.40232 0.86669 1.62806
-1.17978 0.503349 0
-1.3167 0.582322 0.809453
-1.46603 0.69382 1.28714
-1.55525 0.792178 1.60203
-1.59959 0.873773 1.81944
-1.61642 0.940738 1.97468
-1.61741 0.995445 2.08799
-1.61011 1.03935 2.17089
-1.59995 1.07243 2.22886
-1.59275 1.09047 2.25893
-1.06943 0.440388 0
-1.17091 0.524814 1.02906
-1.26613 0.647247 1.67582
-1.30251 0.757356 2.13157
-1.29862 0.849655 2.46633
-1.27246 0.925827 2.71926
-1.23587 0.988245 2.91353
-1.19671 1.03843 3.06222
-1.16151 1.07626 3.17025
-1.14027 1.0969 3.2278
-0.959298 0.319754 0
-1.03593 0.384472 1.22562
-1.10475 0.477459 2.02361
-1.128 0.558877 2.60071
-1.12132 0.62484 3.03199
-1.09867 0.677434 3.36184
-1.06893 0.71918 3.61747
-1.0379 0.751815 3.81446
-1.01039 0.775854 3.95831
-0.993896 0.788765 4.03519
-0.854184 0.145483 0
-0.903953 0.167661 1.34579
-0.941444 0.200673 2.23397
-0.94689 0.229371 2.87594
-0.934566 0.25173 3.35145
-0.914493 0.268602 3.7107
-0.892152 0.281186 3.98552
-0.870704 0.290417 4.19466
-0.852632 0.296825 4.34571
-0.842117 0.300115 4.42581
-0.762755 -0.0540329 0
-0.789627 -0.0873774 1.34653
-0.798012 -0.128803 2.24728
-0.783599 -0.159911 2.90159
-0.760752 -0.181974 3.38581
-0.737004 -0.197646 3.75024
-0.715428 -0.208883 4.0276
-0.697251 -0.216919 4.23751
-0.683293 -0.22241 4.38833
-0.67564 -0.225207 4.468
-0.693098 -0.233561 0
-0.719344 -0.316989 1.2083
-0.737797 -0.424597 2.03847
-0.743211 -0.507127 2.66197
-0.744639 -0.565507 3.13924
-0.746068 -0.606102 3.5101
-0.748527 -0.634194 3.80075
-0.75186 -0.65338 4.02649
-0.755389 -0.665836 4.19227
-0.757735 -0.671906 4.28118
-0.641889 -0.35283 0
-0.692413 -0.461943 0.966386
-0.766135 -0.604221 1.66149
-0.838928 -0.715111 2.21802
-0.907892 -0.795062 2.67229
-0.97164 -0.851873 3.04637
-1.02907 -0.892147 3.3546
-1.07889 -0.920387 3.60432
-1.11868 -0.939226 3.79397
-1.14124 -0.948615 3.89803
-0.593247 -0.398157 0
-0.673532 -0.507548 0.693908
-0.807839 -0.653191 1.22825
-0.949808 -0.771404 1.6919
-1.08547 -0.861351 2.09743
-1.20917 -0.929379 2.45017
-1.31848 -0.980983 2.75345
-1.41152 -1.01979 3.00733
-1.48467 -1.04748 3.20493
-1.52568 -1.06202 3.31507
-0.528455 -0.383168 0
-0.625503 -0.480035 0.442627
-0.789641 -0.614889 0.813921
-0.962134 -0.732357 1.16229
-1.12492 -0.829062 1.4843
-1.27147 -0.908114 1.77522
-1.39954 -0.97259 2.03211
-1.50755 -1.02432 2.25129
-1.59186 -1.0633 2.42418
-1.6389 -1.08458 2.52135
-0.434419 -0.331643 0
-0.531315 -0.410918 0.228264
-0.689251 -0.527795 0.436907
-0.849158 -0.637425 0.644443
-0.995917 -0.734027 0.842624
-1.1254 -0.817603 1.02505
-1.23687 -0.888962 1.18796
-1.32985 -0.948332 1.32796
-1.40184 -0.994318 1.4389
-1.44179 -1.01987 1.50142
-0.303599 -0.263774 0
-0.389957 -0.319438 0.0609596
-0.523373 -0.404113 0.123759
-0.651067 -0.486424 0.188678
-0.763253 -0.561035 0.250769
-0.859072 -0.626931 0.307341
-0.939598 -0.684041 0.357203
-1.00555 -0.732072 0.399504
-1.05595 -0.769562 0.43266
-1.08369 -0.790492 0.451201
-0.130308 -0.19513 0
-0.200825 -0.220599 -0.0393496
-0.308317 -0.255947 -0.0637827
-0.408776 -0.287336 -0.0847729
-0.494933 -0.313862 -0.104894
-0.566998 -0.336068 -0.124318
-0.626523 -0.354529 -0.142601
-0.674607 -0.369562 -0.159059
-0.710954 -0.381012 -0.172594
-0.730817 -0.387303 -0.180412
0.0875873 -0.140664 0
0.0426375 -0.136832 -0.0603828
-0.0328826 -0.120973 -0.0820798
-0.109207 -0.0970852 -0.089509
-0.178228 -0.0703366 -0.0913783
-0.238146 -0.0437248 -0.0910108
-0.288993 -0.0188807 -0.0897869
-0.330896 0.00307255 -0.0883406
-0.363035 0.0207887 -0.0870308
-0.38076 0.0308798 -0.0862483
0.340159 -0.114097 0
0.338343 -0.094696 -0.0199109
0.318703 -0.0515747 0.0362269
0.285824 0.000968891 0.125069
0.248144 0.0542469 0.223026
0.210554 0.104167 0.319037
0.175608 0.148894 0.40767
0.144924 0.187258 0.485352
0.120323 0.217557 0.547676
0.0931283 0.250106 0.614077
0.598607 -0.121998 0
0.65503 -0.109496 0.0336755
0.718657 -0.080122 0.183435
0.759954 -0.0446651 0.382129
0.783978 -0.00993223 0.58879
0.796918 0.0213204 0.784773
0.80305 0.048234 0.961659
0.805142 0.070503 1.11414
0.797698 0.105288 1.3477
0.792846 0.124843 1.48042
0.81921 -0.159406 0
0.928298 -0.173922 0.0425561
1.07098 -0.194952 0.226463
1.18882 -0.216185 0.463645
1.28226 -0.237293 0.702756
1.35653 -0.257863 0.922844
1.41577 -0.277293 1.11624
1.48252 -0.305878 1.38038
1.54104 -0.333457 1.62742
1.57228 -0.348688 1.76089
0.95853 -0.211219 0
1.08491 -0.257546 -0.0284892
1.24755 -0.33583 0.083001
1.38228 -0.418233 0.239611
1.49131 -0.4964 0.394306
1.58033 -0.567256 0.530858
1.6533 -0.629622 0.645363
1.75824 -0.733048 0.820617
1.83875 -0.813923 0.954143
1.882 -0.857792 1.02518
0.990937 -0.258633 0
1.08881 -0.321601 -0.162732
1.1925 -0.425438 -0.199059
1.25843 -0.530383 -0.195748
1.29934 -0.625678 -0.185651
1.32544 -0.708615 -0.178674
1.34253 -0.779041 -0.176589
1.36051 -0.882773 -0.181598
1.37426 -0.972058 -0.188706
1.38116 -1.02002 -0.193596
0.916584 -0.2874 0
0.962392 -0.346185 -0.306336
0.973485 -0.43719 -0.485126
0.937841 -0.52365 -0.615565
0.879675 -0.598393 -0.720586
0.814177 -0.660937 -0.808424
0.749466 -0.712372 -0.882486
0.67781 -0.763055 -0.957686
0.581819 -0.829262 -1.05696
0.529064 -0.864539 -1.11048
0.755084 -0.291549 0
0.75443 -0.335483 -0.420161
0.694466 -0.39886 -0.694127
0.588966 -0.455881 -0.905256
0.466828 -0.503776 -1.07548
0.344433 -0.543349 -1.2147
0.230207 -0.575781 -1.32867
0.12953 -0.601838 -1.42036
0.00879143 -0.632073 -1.52817
-0.082057 -0.654741 -1.60951
0.531533 -0.270021 0
0.501175 -0.29737 -0.4951
0.409671 -0.333769 -0.821262
0.285316 -0.364956 -1.07528
0.153538 -0.391027 -1.2825
0.027279 -0.413014 -1.45409
-0.0873379 -0.431601 -1.59627
-0.186473 -0.447037 -1.71195
-0.2652 -0.459016 -1.80004
-0.340567 -0.469874 -1.88903
0.266916 -0.222719 0
0.215052 -0.232749 -0.529514
0.11218 -0.241132 -0.868321
-0.0042564 -0.244122 -1.12925
-0.116762 -0.244349 -1.34325
-0.218512 -0.243491 -1.52273
-0.307204 -0.242338 -1.67366
-0.381636 -0.241241 -1.7982
-0.439435 -0.240369 -1.89422
-0.47155 -0.239889 -1.94743
-0.0196357 -0.151149 0
-0.101044 -0.142822 -0.517006
-0.231011 -0.121096 -0.819063
-0.358256 -0.0923395 -1.03276
-0.471043 -0.0618458 -1.1983
-0.567431 -0.0324709 -1.33231
-0.648134 -0.00565632 -1.4426
-0.713866 0.0176459 -1.5324
-0.763796 0.0362191 -1.60108
-0.791146 0.0467141 -1.63898
-0.300733 -0.0607054 0
-0.424545 -0.0369214 -0.458962
-0.612392 0.00702135 -0.681706
-0.790896 0.0563999 -0.802904
-0.947737 0.105133 -0.873763
-1.08203 0.150441 -0.917415
-1.19521 0.19101 -0.945251
-1.28818 0.225874 -0.963223
-1.35937 0.25348 -0.974458
-1.39862 0.269024 -0.979813
-0.536223 0.0399055 0
-0.69949 0.0721719 -0.374793
-0.948028 0.122205 -0.511404
-1.18671 0.170896 -0.543536
-1.39934 0.214604 -0.528292
-1.58396 0.25273 -0.492344
-1.7416 0.285381 -0.448982
-1.87254 0.312559 -0.405738
-1.97374 0.333597 -0.368459
-2.02988 0.345277 -0.346477
-0.237417 -0.109791 0
-0.372671 -0.0994683 -0.537689
-0.583951 -0.0789821 -0.827919
-0.789768 -0.0554348 -1.01056
-0.973894 -0.0322545 -1.13572
-1.13374 -0.0109215 -1.22632
-1.26998 0.00795906 -1.29405
-1.38288 0.0240085 -1.345
-1.46997 0.0366006 -1.3816
-1.5182 0.0436458 -1.40097
-0.474175 0.0126708 0
-0.656042 0.0367639 -0.480961
-0.943327 0.0712749 -0.720999
-1.22786 0.101946 -0.857824
-1.48655 0.12738 -0.942707
-1.71429 0.148153 -0.998721
-1.91064 0.16501 -1.03726
-2.0749 0.178441 -1.06423
-2.20251 0.18849 -1.08248
-2.27352 0.193945 -1.09175
-0.623107 0.142147 0
-0.81614 0.182269 -0.398249
-1.1172 0.23588 -0.584141
-1.41149 0.280222 -0.682068
-1.67629 0.314943 -0.738377
-1.90755 0.342073 -0.773058
-2.10572 0.363344 -0.795516
-2.27072 0.379849 -0.81044
-2.39845 0.391951 -0.820131
-2.46937 0.398436 -0.824918
-0.674651 0.261173 0
-0.840352 0.31705 -0.282641
-1.09028 0.391529 -0.395528
-1.32557 0.453496 -0.441268
-1.5305 0.502637 -0.458507
-1.70473 0.541642 -0.463079
-1.85083 0.572729 -0.461975
-1.97037 0.597227 -0.458566
-2.06169 0.615435 -0.454754
-2.11194 0.625285 -0.45228
-0.655415 0.353669 0
-0.774178 0.4189 -0.137246
-0.947375 0.504292 -0.158132
-1.10381 0.574079 -0.135959
-1.23459 0.628703 -0.0998527
-1.34165 0.671672 -0.0611594
-1.4284 0.705711 -0.0245405
-1.49732 0.732427 0.00768441
-1.5487 0.752232 0.0334582
-1.5765 0.76293 0.0480238
-0.60822 0.410815 0
-0.688245 0.475698 0.0167451
-0.810702 0.555225 0.0797568
-0.928309 0.614295 0.153437
-1.03208 0.655924 0.223451
-1.12083 0.685393 0.285714
-1.19533 0.706491 0.339344
-1.25621 0.721573 0.384008
-1.3026 0.731883 0.418534
-1.32807 0.737137 0.437673
-0.561465 0.431722 0
-0.621245 0.49251 0.1594
-0.725343 0.562221 0.276998
-0.840232 0.608096 0.361
-0.953375 0.635181 0.418814
-1.05862 0.650105 0.458222
-1.15288 0.6575 0.48498
-1.23388 0.660366 0.502894
-1.298 0.660748 0.514286
-1.33409 0.660318 0.519739
-0.512903 0.417812 0
-0.555224 0.478373 0.296097
-0.630847 0.550826 0.460585
-0.718247 0.602276 0.544625
-0.807994 0.63628 0.578268
-0.894265 0.658434 0.582232
-0.973523 0.672758 0.569772
-1.04297 0.681842 0.549594
-1.09874 0.687285 0.528425
-1.13042 0.689753 0.514719
-0.438782 0.367467 0
-0.445582 0.429351 0.443393
-0.445373 0.512499 0.685396
-0.439169 0.583281 0.812425
-0.43183 0.641086 0.869386
-0.42533 0.688334 0.885128
-0.420184 0.727003 0.877622
-0.41639 0.758175 0.858459
-0.413828 0.781769 0.836338
-0.412561 0.79469 0.821497
-0.318683 0.277913 0
-0.26514 0.33201 0.59559
-0.142801 0.410415 0.950254
0.0100047 0.48446 1.17664
0.167742 0.551133 1.32362
0.317393 0.610246 1.42043
0.452653 0.661866 1.48467
0.56938 0.705635 1.52696
0.661956 0.740047 1.55351
0.714104 0.759359 1.5661
-0.156345 0.152005 0
-0.0284806 0.183171 0.715726
0.22646 0.226591 1.16947
0.523333 0.266537 1.49444
0.819553 0.302291 1.73953
1.09538 0.33414 1.93076
1.34186 0.362188 2.08267
1.55303 0.386188 2.20267
1.80408 0.41272 2.33065
1.9866 0.431369 2.41976
0.0164211 0.00155677 0
0.211521 0.00155964 0.766627
0.569664 -0.0039123 1.25091
0.961904 -0.0144698 1.59957
1.33787 -0.0275031 1.86612
1.67836 -0.0411561 2.07782
1.97658 -0.0542981 2.24911
2.31163 -0.070083 2.42337
2.70025 -0.0888512 2.61203
2.91049 -0.0991619 2.71344
0.153269 -0.15461 0
0.385308 -0.182785 0.742726
0.792187 -0.223449 1.19509
1.22225 -0.261802 1.50164
1.62483 -0.296574 1.72048
1.98344 -0.327746 1.88331
2.29378 -0.355289 2.00779
2.74534 -0.395627 2.15452
3.13555 -0.430809 2.2747
3.34633 -0.449998 2.3385
0.21591 -0.294074 0
0.436471 -0.34304 0.661386
0.817533 -0.39977 1.07021
1.21985 -0.437828 1.34762
1.59894 -0.461333 1.54276
1.93959 -0.475556 1.68425
2.23694 -0.48404 1.78907
2.6894 -0.489724 1.90661
3.06797 -0.493075 1.99778
3.27293 -0.494524 2.04556
0.190716 -0.394895 0
0.352049 -0.459719 0.537176
0.629048 -0.530222 0.911539
0.925288 -0.570441 1.2042
1.21025 -0.587672 1.43914
1.47168 -0.590845 1.63029
1.70408 -0.586165 1.7864
1.99397 -0.570277 1.95648
2.30991 -0.5482 2.12901
2.48146 -0.535472 2.22158
0.0877693 -0.439155 0
0.166624 -0.517407 0.373934
0.298254 -0.611896 0.68783
0.438605 -0.678674 0.977833
0.575203 -0.721951 1.24093
0.702423 -0.749236 1.47468
0.817157 -0.766066 1.6782
0.916586 -0.776067 1.8499
1.04647 -0.781666 2.05616
1.14075 -0.784034 2.20151
-0.0738575 -0.414031 0
-0.0730754 -0.498536 0.179465
-0.0755666 -0.614603 0.374256
-0.0800211 -0.714112 0.583066
-0.0843773 -0.794879 0.788143
-0.0878632 -0.860127 0.978892
-0.0903682 -0.912835 1.1498
-0.0920136 -0.954801 1.29672
-0.092975 -0.986235 1.41305
-0.093383 -1.00332 1.47853
-0.279921 -0.314672 0
-0.343442 -0.387733 -0.0164192
-0.445974 -0.496984 0.0203524
-0.550281 -0.600048 0.086139
-0.647461 -0.690705 0.162198
-0.734769 -0.768761 0.238223
-0.811286 -0.835036 0.308908
-0.876131 -0.889883 0.370935
-0.927007 -0.932176 0.420632
-0.9555 -0.955602 0.448785
-0.522689 -0.151853 0
-0.643661 -0.19071 -0.159067
-0.823301 -0.252103 -0.254463
-0.991521 -0.312932 -0.318833
-1.13884 -0.368205 -0.365341
-1.26543 -0.416804 -0.400778
-1.37286 -0.458639 -0.428674
-1.4618 -0.493581 -0.450722
-1.53041 -0.520689 -0.467271
-1.56844 -0.535759 -0.476313
-0.790835 0.0435212 0
-0.971857 0.0502084 -0.196986
-1.23012 0.0578176 -0.334188
-1.45977 0.0630479 -0.442255
-1.65132 0.0666097 -0.530194
-1.80919 0.0691761 -0.602889
-1.93859 0.0711261 -0.663194
-2.04276 0.0726426 -0.712418
-2.1214 0.0737772 -0.750062
-2.16437 0.0743985 -0.770823
-1.05783 0.229457 0
-1.299 0.270889 -0.127438
-1.64361 0.328743 -0.213695
-1.94971 0.379611 -0.278294
-2.20413 0.42203 -0.327763
-2.41285 0.457176 -0.366231
-2.58313 0.486204 -0.396388
-2.71957 0.509754 -0.419815
-2.82217 0.527658 -0.437016
-2.87808 0.53749 -0.446241
-1.28199 0.37352 0
-1.56608 0.428551 0.00112199
-1.97671 0.501308 0.000971153
-2.34689 0.561013 0.0024344
-2.6588 0.607631 0.00596325
-2.91763 0.644084 0.010968
-3.13078 0.672746 0.0167144
-3.30288 0.695071 0.0225164
-3.43307 0.711507 0.0276315
-3.50427 0.720341 0.0307022
-1.42469 0.467326 0
-1.71639 0.524777 0.143376
-2.13609 0.597174 0.22128
-2.51416 0.652839 0.269058
-2.83337 0.693422 0.300754
-3.09905 0.723092 0.323135
-3.31854 0.744987 0.339624
-3.49626 0.761084 0.351951
-3.63103 0.772362 0.360805
-3.70486 0.778213 0.365503
-1.47493 0.520251 0
-1.73704 0.583462 0.295365
-2.09963 0.665587 0.453488
-2.41379 0.731515 0.545699
-2.67133 0.781822 0.601511
-2.88109 0.820267 0.636201
-3.0516 0.849842 0.658077
-3.18802 0.872422 0.671815
-3.29055 0.888763 0.680066
-3.34642 0.89744 0.683841
-1.45588 0.541043 0
-1.67113 0.616968 0.477919
-1.94385 0.722557 0.753899
-2.15565 0.814789 0.932363
-2.31213 0.890985 1.05378
-2.42827 0.95344 1.13947
-2.51535 1.00447 1.20142
-2.58041 1.04544 1.24638
-2.62666 1.07633 1.27761
-2.65092 1.09319 1.29374
-1.40388 0.526679 0
-1.58361 0.613425 0.695027
-1.79122 0.737651 1.13403
-1.92981 0.849279 1.45011
-2.01375 0.943539 1.68903
-2.06216 1.02211 1.87492
-2.08838 1.08715 2.02166
-2.10097 1.13993 2.1367
-2.10557 1.18002 2.22195
-2.10635 1.20202 2.26799
-1.34153 0.465002 0
-1.50766 0.549813 0.918349
-1.69871 0.669917 1.52609
-1.82475 0.775268 1.98243
-1.89932 0.861791 2.33891
-1.94053 0.932048 2.62352
-1.96107 0.988887 2.85281
-1.96915 1.03413 3.03549
-1.97037 1.06797 3.17255
-1.9693 1.08635 3.24717
-1.27088 0.345564 0
-1.42992 0.411254 1.11231
-1.61791 0.503036 1.85724
-1.74843 0.58083 2.41509
-1.83203 0.641933 2.84654
-1.88431 0.689273 3.18699
-1.91634 0.725875 3.4582
-1.93526 0.753829 3.67216
-1.94558 0.774018 3.83139
-1.9498 0.784712 3.91761
-1.18718 0.172009 0
-1.33095 0.199467 1.24173
-1.49715 0.239266 2.07817
-1.6087 0.273165 2.6975
-1.67724 0.299159 3.16713
-1.71791 0.318483 3.5297
-1.74111 0.332678 3.81249
-1.75343 0.342927 4.03138
-1.75912 0.349932 4.1917
-1.76094 0.353484 4.27756
-1.09209 -0.0290225 0
-1.2182 -0.0566956 1.25717
-1.35961 -0.0922643 2.1137
-1.44992 -0.120682 2.74792
-1.50171 -0.14249 3.22535
-1.52946 -0.159384 3.59009
-1.54283 -0.172615 3.87132
-1.54779 -0.182914 4.08655
-1.54829 -0.190504 4.24263
-1.54741 -0.19459 4.3256
-0.992121 -0.211422 0
-1.11471 -0.293281 1.12275
-1.26782 -0.405167 1.89618
-1.38585 -0.498523 2.47608
-1.47346 -0.571225 2.91785
-1.53941 -0.62729 3.25899
-1.58984 -0.67053 3.52455
-1.62835 -0.703506 3.72949
-1.65631 -0.727306 3.87912
-1.67122 -0.739908 3.95905
-0.889509 -0.331808 0
-1.02524 -0.442417 0.87175
-1.22888 -0.594973 1.47635
-1.42442 -0.723573 1.93966
-1.60024 -0.824635 2.30264
-1.75472 -0.903176 2.59113
-1.88814 -0.964148 2.82189
-2.00009 -1.01091 3.00434
-2.08733 -1.0448 3.14029
-2.13599 -1.06281 3.21395
-0.779004 -0.374441 0
-0.928679 -0.483825 0.589765
-1.18009 -0.634061 1.00447
-1.44621 -0.760964 1.33409
-1.70098 -0.861426 1.60372
-1.93393 -0.940283 1.82702
-2.14043 -1.00217 2.01225
-2.31678 -1.05015 2.16325
-2.45585 -1.08527 2.27855
-2.53396 -1.10405 2.34205
-0.652586 -0.353384 0
-0.801148 -0.445788 0.340237
-1.06026 -0.572906 0.588736
-1.34185 -0.68167 0.798237
-1.61528 -0.769542 0.979531
-1.86725 -0.840129 1.13684
-2.09165 -0.896822 1.27223
-2.28383 -0.941721 1.38582
-2.43564 -0.975198 1.47445
-2.521 -0.993339 1.52394
-0.504504 -0.293888 0
-0.633584 -0.365635 0.141245
-0.853925 -0.466496 0.252116
-1.08812 -0.555881 0.3537
-1.3117 -0.630908 0.447403
-1.51519 -0.693382 0.532448
-1.69475 -0.745178 0.607996
-1.84747 -0.787318 0.672827
-1.9675 -0.819423 0.724214
-2.03478 -0.837076 0.753193
-0.331657 -0.216861 0
-0.432029 -0.265254 -0.00581183
-0.591481 -0.335245 -0.00665126
-0.748604 -0.399582 -0.0027895
-0.889835 -0.455378 0.00391958
-1.01257 -0.50308 0.0118672
-1.11708 -0.54345 0.0199985
-1.20357 -0.576819 0.0275832
-1.27016 -0.602544 0.0339123
-1.30699 -0.616797 0.037586
-0.131251 -0.137993 0
-0.205255 -0.156993 -0.0895219
-0.316364 -0.182843 -0.156701
-0.417747 -0.205378 -0.213738
-0.502295 -0.224187 -0.262966
-0.571004 -0.239806 -0.305491
-0.626203 -0.25272 -0.341945
-0.669673 -0.263196 -0.372436
-0.701828 -0.271153 -0.396173
-0.719132 -0.275518 -0.40941
0.0984294 -0.0736893 0
0.0466821 -0.061697 -0.0952048
-0.0397683 -0.0368792 -0.15373
-0.126873 -0.00800453 -0.1969
-0.205554 0.0205521 -0.230886
-0.273845 0.0469543 -0.258367
-0.331813 0.0704444 -0.28076
-0.379607 0.0905208 -0.298759
-0.416286 0.106351 -0.312347
-0.436524 0.11524 -0.319772
0.351677 -0.0415843 0
0.326742 -0.0106204 -0.0337244
0.262823 0.0464679 -0.0104586
0.178724 0.108763 0.0357046
0.0893136 0.16814 0.0883767
0.00268512 0.221647 0.140448
-0.0769008 0.268326 0.188638
-0.146477 0.307606 0.230906
-0.202213 0.338208 0.264828
-0.245879 0.361625 0.291066
0.608432 -0.0531366 0
0.62144 -0.0271958 0.0481537
0.601616 0.0212326 0.178735
0.548138 0.0743143 0.340996
0.478942 0.124738 0.504503
0.405781 0.169842 0.656435
0.335315 0.208844 0.791594
0.271935 0.241373 0.906873
0.195908 0.27764 1.03554
0.134797 0.305965 1.13554
0.834428 -0.106097 0
0.89016 -0.110123 0.085822
0.93187 -0.114747 0.27498
0.939447 -0.118321 0.502945
0.929495 -0.121455 0.728686
0.912733 -0.124495 0.935308
0.894502 -0.127499 1.11663
0.872144 -0.130938 1.30134
0.83878 -0.135505 1.53588
0.820658 -0.138079 1.66261
0.99121 -0.183558 0
1.07617 -0.228088 0.030025
1.16297 -0.304618 0.164328
1.22074 -0.385153 0.336857
1.26423 -0.460902 0.508856
1.30154 -0.528897 0.664975
1.33539 -0.588212 0.800167
1.38358 -0.672865 0.988955
1.42786 -0.748885 1.15688
1.45258 -0.790033 1.24718
1.05101 -0.260917 0
1.13641 -0.332008 -0.114149
1.21962 -0.452006 -0.14122
1.27111 -0.576143 -0.136971
1.30736 -0.691195 -0.124872
1.33728 -0.793148 -0.113381
1.36398 -0.881094 -0.104923
1.40459 -1.01233 -0.0944506
1.44049 -1.12462 -0.0868148
1.4605 -1.18522 -0.0833439
1.00684 -0.317385 0
1.06843 -0.388556 -0.286066
1.109 -0.501486 -0.492226
1.10934 -0.612605 -0.66717
1.0898 -0.712247 -0.820293
1.06269 -0.798573 -0.95458
1.03415 -0.871843 -1.07119
0.994927 -0.961986 -1.21655
0.952065 -1.05742 -1.37113
0.928436 -1.10871 -1.45493
0.871043 -0.343155 0
0.903058 -0.397449 -0.427643
0.901217 -0.47541 -0.756527
0.859241 -0.545869 -1.04325
0.798194 -0.605643 -1.29434
0.731161 -0.655592 -1.51235
0.665322 -0.696969 -1.69921
0.605338 -0.730526 -1.85507
0.51056 -0.78267 -2.1074
0.458171 -0.810692 -2.24392
0.664694 -0.336972 0
0.672186 -0.371665 -0.520237
0.649044 -0.413949 -0.905235
0.600603 -0.446 -1.23227
0.542857 -0.46963 -1.51435
0.484495 -0.48739 -1.75689
0.42983 -0.500978 -1.96336
0.381547 -0.511361 -2.13474
0.327088 -0.520763 -2.34133
0.288767 -0.52672 -2.49199
0.407761 -0.299875 0
0.388826 -0.318246 -0.567214
0.347224 -0.333413 -0.955809
0.301876 -0.337501 -1.2686
0.261569 -0.335068 -1.53026
0.228315 -0.329532 -1.75128
0.201797 -0.322841 -1.93736
0.181288 -0.316158 -2.09068
0.166426 -0.310275 -2.21005
0.157832 -0.301415 -2.34206
0.11967 -0.232486 0
0.0576928 -0.237522 -0.574076
-0.0374081 -0.233693 -0.928361
-0.124099 -0.220258 -1.18818
-0.195061 -0.202409 -1.39183
-0.251167 -0.183482 -1.55634
-0.294856 -0.165301 -1.69057
-0.328184 -0.149013 -1.79875
-0.352119 -0.135782 -1.88064
-0.364717 -0.128225 -1.9255
-0.171436 -0.136561 0
-0.292424 -0.129273 -0.547904
-0.480252 -0.111784 -0.850718
-0.661397 -0.089643 -1.04696
-0.821779 -0.0667644 -1.18527
-0.95972 -0.045106 -1.28791
-1.07635 -0.0255846 -1.36627
-1.17237 -0.00878138 -1.42623
-1.24605 0.00451682 -1.4699
-1.28671 0.0119968 -1.49323
-0.424162 -0.0179973 0
-0.597473 0.00257575 -0.496721
-0.871137 0.0333281 -0.748655
-1.14196 0.0618461 -0.895145
-1.38798 0.0862935 -0.987851
-1.60439 0.106779 -1.05018
-1.79085 0.123736 -1.09381
-1.94676 0.137459 -1.1248
-2.06783 0.147849 -1.14604
-2.13518 0.153532 -1.15693
				 </DataArray>
			 </PointData>
			 <Points>
				 <DataArray type="Float64" NumberOfComponents="3" format="ascii">
   -882.6850    -882.6850     -76.4000
   -882.6850    -882.6850     -45.2841
   -882.6850    -882.6850     -29.8586
   -882.6850    -882.6850     -20.8107
   -882.6850    -882.6850     -14.9215
   -882.6850    -882.6850     -10.8191
   -882.6850    -882.6850      -7.8408
   -882.6850    -882.6850      -5.6506
   -882.6850    -882.6850      -4.1033
   -882.6850    -882.6850      -3.2929
   -882.6850    -846.6570     -76.4000
   -882.6850    -846.6570     -45.8526
   -882.6850    -846.6570     -30.7089
   -882.6850    -846.6570     -21.8263
   -882.6850    -846.6570     -16.0447
   -882.6850    -846.6570     -12.0173
   -882.6850    -846.6570      -9.0934
   -882.6850    -846.6570      -6.9432
   -882.6850    -846.6570      -5.4241
   -882.6850    -846.6570      -4.6285
   -882.6850    -810.6291     -76.4000
   -882.6850    -810.6291     -46.0417
   -882.6850    -810.6291     -30.9917
   -882.6850    -810.6291     -22.1641
   -882.6850    -810.6291     -16.4184
   -882.6850    -810.6291     -12.4159
   -882.6850    -810.6291      -9.5101
   -882.6850    -810.6291      -7.3732
   -882.6850    -810.6291      -5.8635
   -882.6850    -810.6291      -5.0729
   -882.6850    -774.6011     -76.4000
   -882.6850    -774.6011     -45.7790
   -882.6850    -774.6011     -30.5988
   -882.6850    -774.6011     -21.6948
   -882.6850    -774.6011     -15.8993
   -882.6850    -774.6011     -11.8621
   -882.6850    -774.6011      -8.9312
   -882.6850    -774.6011      -6.7758
   -882.6850    -774.6011      -5.2531
   -882.6850    -774.6011      -4.4556
   -882.6850    -738.5732     -76.4000
   -882.6850    -738.5732     -45.2803
   -882.6850    -738.5732     -29.8529
   -882.6850    -738.5732     -20.8039
   -882.6850    -738.5732     -14.9140
   -882.6850    -738.5732     -10.8111
   -882.6850    -738.5732      -7.8325
   -882.6850    -738.5732      -5.6420
   -882.6850    -738.5732      -4.0944
   -882.6850    -738.5732      -3.2840
   -882.6850    -702.5452     -76.4000
   -882.6850    -702.5452     -44.9578
   -882.6850    -702.5452     -29.3705
   -882.6850    -702.5452     -20.2277
   -882.6850    -702.5452     -14.2768
   -882.6850    -702.5452     -10.1314
   -882.6850    -702.5452      -7.1219
   -882.6850    -702.5452      -4.9087
   -882.6850    -702.5452      -3.3451
   -882.6850    -702.5452      -2.5262
   -882.6850    -666.5172     -76.4000
   -882.6850    -666.5172     -44.9534
   -882.6850    -666.5172     -29.3640
   -882.6850    -666.5172     -20.2199
   -882.6850    -666.5172     -14.2682