<?xml version="1.0"?>
<VTKFile type="UnstructuredGrid" version="1.0" byte_order="LittleEndian" header_type="UInt64">
	 <UnstructuredGrid>
		 <FieldData> 
			 <DataArray type = "Float64" Name = "TimeValue" NumberOfTuples = "1" format = "ascii" RangeMin = "0.000" RangeMax = "0.000"> 
			 0.000 
			 </DataArray > 
		 </FieldData> 
		 <Piece NumberOfPoints="1000" NumberOfCells="441">
			 <PointData Scalars="scalars">
				 <DataArray type="Float64" NumberOfComponents="3" Name="Velocity" format="ascii">
1.25736 -0.444227 0
1.56394 -0.51878 0.196485
1.98741 -0.611544 0.296845
2.34864 -0.678802 0.37607
2.63816 -0.722565 0.452268
2.86853 -0.749449 0.526961
3.18671 -0.76396 0.6519
3.47708 -0.770903 0.774574
3.68717 -0.773484 0.868666
3.79888 -0.773909 0.920742
1.36146 -0.474686 0
1.71576 -0.553126 0.04532
2.22832 -0.653501 0.0752511
2.69018 -0.731605 0.135532
3.07872 -0.788728 0.22644
3.40808 -0.830718 0.339932
3.94324 -0.877227 0.604417
4.35564 -0.911041 0.825198
4.65757 -0.934506 0.997798
4.81944 -0.946592 1.09453
1.34328 -0.492152 0
1.68524 -0.578505 -0.123577
2.19263 -0.698474 -0.200674
2.66394 -0.805194 -0.220959
3.07109 -0.896443 -0.195492
3.42574 -0.976696 -0.137198
3.99415 -1.10897 0.0417226
4.43579 -1.21268 0.19504
4.76129 -1.28981 0.317226
4.93657 -1.33164 0.38653
1.20254 -0.486905 0
1.46624 -0.571992 -0.302665
1.85957 -0.69377 -0.517893
2.23043 -0.805865 -0.67197
2.55659 -0.904465 -0.780344
2.83729 -0.990461 -0.856807
3.23644 -1.11927 -0.929617
3.61273 -1.24258 -0.988605
3.89124 -1.33451 -1.02906
4.04165 -1.38444 -1.04973
0.969078 -0.451779 0
1.1241 -0.518462 -0.455431
1.35453 -0.607364 -0.778078
1.57542 -0.681218 -1.0265
1.77459 -0.739742 -1.22279
1.95022 -0.786243 -1.38125
2.10665 -0.824335 -1.51345
2.36968 -0.883582 -1.71055
2.56503 -0.926595 -1.85534
2.67081 -0.949531 -1.93322
0.689188 -0.388327 0
0.745924 -0.42716 -0.548817
0.829679 -0.467798 -0.902181
0.913103 -0.488569 -1.14841
0.992013 -0.494371 -1.32514
1.06443 -0.491095 -1.4557
1.12909 -0.482925 -1.55416
1.19092 -0.471864 -1.6345
1.28432 -0.455058 -1.73563
1.33501 -0.445263 -1.78891
0.401641 -0.306535 0
0.384176 -0.324315 -0.584792
0.353607 -0.336342 -0.914307
0.323238 -0.333653 -1.10374
0.296211 -0.321642 -1.20868
0.272723 -0.305032 -1.26312
0.252504 -0.286894 -1.28753
0.23549 -0.269347 -1.29453
0.22215 -0.254368 -1.29257
0.207607 -0.240791 -1.28651
0.122321 -0.216964 0
0.0464246 -0.227848 -0.596196
-0.0794138 -0.24166 -0.911707
-0.20978 -0.253444 -1.07826
-0.332961 -0.263524 -1.15863
-0.445033 -0.272248 -1.18959
-0.544361 -0.279777 -1.19272
-0.629353 -0.286123 -1.18132
-0.69656 -0.291096 -1.16473
-0.734399 -0.293882 -1.15283
-0.151187 -0.123939 0
-0.281666 -0.13373 -0.609899
-0.494115 -0.156799 -0.956423
-0.710267 -0.187723 -1.17161
-0.910824 -0.221643 -1.31009
-1.09016 -0.255337 -1.40172
-1.24665 -0.286862 -1.46347
-1.3788 -0.314788 -1.50513
-1.4822 -0.337369 -1.53208
-1.54001 -0.350247 -1.54525
-0.420967 -0.0277958 0
-0.607097 -0.0292781 -0.617709
-0.89868 -0.0416153 -1.00926
-1.18199 -0.0630904 -1.29464
-1.43411 -0.0886097 -1.51388
-1.65178 -0.114759 -1.68735
-1.83632 -0.139562 -1.82642
-1.98859 -0.161673 -1.93694
-2.1056 -0.179605 -2.01976
-2.17024 -0.189844 -2.06483
-0.67114 0.0665037 0
-0.911218 0.0824204 -0.590192
-1.27408 0.101045 -0.984399
-1.61219 0.114128 -1.28812
-1.90205 0.122918 -1.53207
-2.14452 0.128916 -1.73162
-2.34481 0.133098 -1.89563
-2.50659 0.136036 -2.02838
-2.62887 0.138025 -2.12919
-2.69568 0.139033 -2.18451
-0.863667 0.145539 0
-1.14693 0.176541 -0.517486
-1.56845 0.220634 -0.85849
-1.95513 0.260447 -1.11629
-2.28257 0.294474 -1.31938
-2.5539 0.323231 -1.48261
-2.77639 0.347348 -1.61475
-2.95508 0.367139 -1.72038
-3.08956 0.382312 -1.7998
-3.16284 0.390688 -1.8431
-0.951449 0.195284 0
-1.25218 0.229929 -0.425726
-1.69989 0.27638 -0.699603
-2.11265 0.315168 -0.900976
-2.46479 0.345931 -1.05556
-2.7589 0.370297 -1.17707
-3.0019 0.389653 -1.27359
-3.19836 0.404851 -1.34957
-3.34704 0.416108 -1.40601
-3.42837 0.422181 -1.43652
-0.903611 0.210551 0
-1.1811 0.242161 -0.346191
-1.5935 0.279557 -0.58136
-1.97533 0.305252 -0.765166
-2.30354 0.321318 -0.91391
-2.57994 0.330967 -1.03594
-2.81009 0.336513 -1.13629
-2.99746 0.339464 -1.21746
-3.14006 0.340817 -1.27903
-3.21837 0.341243 -1.31278
-0.727481 0.192573 0
-0.938024 0.223982 -0.282014
-1.24038 0.261767 -0.503383
-1.51216 0.288348 -0.70171
-1.74134 0.305467 -0.879355
-1.93201 0.316159 -1.03624
-2.08954 0.322659 -1.17242
-2.21714 0.326436 -1.28711
-2.31394 0.328441 -1.37671
-2.36699 0.329233 -1.42675
-0.467556 0.141301 0
-0.582545 0.174967 -0.216179
-0.721058 0.223803 -0.411106
-0.820028 0.268447 -0.606475
-0.88609 0.30679 -0.794643
-0.929884 0.339237 -0.968932
-0.958979 0.366443 -1.12525
-0.978149 0.388754 -1.25998
-0.990207 0.405845 -1.36695
-0.995942 0.415274 -1.42731
-0.179519 0.0560074 0
-0.200551 0.0831575 -0.145903
-0.182654 0.13127 -0.277142
-0.118863 0.184339 -0.411604
-0.0315776 0.236601 -0.54345
0.0630533 0.285382 -0.667034
0.15546 0.329307 -0.778754
0.239255 0.367266 -0.875562
0.30793 0.397468 -0.952709
0.360859 0.419452 -1.00766
0.0969353 -0.0576486 0
0.143609 -0.0544793 -0.10334
0.252939 -0.0386548 -0.167358
0.392012 -0.0132914 -0.218387
0.53717 0.0161151 -0.261271
0.675855 0.0460429 -0.297334
0.801797 0.0744273 -0.327331
0.910847 0.0997946 -0.351667
1.0526 0.13237 -0.375263
1.14715 0.154081 -0.389619
0.343454 -0.182754 0
0.440539 -0.217097 -0.131417
0.601039 -0.256345 -0.182711
0.761628 -0.283043 -0.201106
0.905502 -0.30029 -0.203227
1.02917 -0.311506 -0.196595
1.13308 -0.318888 -0.185425
1.22983 -0.324588 -0.169238
1.35329 -0.331827 -0.140791
1.41954 -0.335479 -0.124731
0.548593 -0.292011 0
0.702392 -0.36712 -0.250966
0.936053 -0.463855 -0.361054
1.15217 -0.540927 -0.41179
1.33449 -0.599812 -0.433668
1.48403 -0.645261 -0.440321
1.60507 -0.680773 -0.438729
1.7582 -0.723178 -0.427065
1.89472 -0.760388 -0.413369
1.96736 -0.780175 -0.40509
0.693318 -0.355733 0
0.910131 -0.4628 -0.454859
1.24801 -0.603673 -0.680275
1.57315 -0.716558 -0.800898
1.85973 -0.801739 -0.86709
2.10511 -0.865958 -0.903335
2.34402 -0.919324 -0.921402
2.67722 -0.979468 -0.925297
2.9226 -1.02237 -0.925003
3.05464 -1.04494 -0.923713
0.751344 -0.35627 0
1.00279 -0.472503 -0.70302
1.40718 -0.628534 -1.0756
1.81231 -0.755669 -1.28324
2.18341 -0.852322 -1.39832
2.51206 -0.925172 -1.46026
2.90841 -0.994939 -1.47751
3.36319 -1.06461 -1.46398
3.70201 -1.11399 -1.44836
3.88583 -1.13985 -1.43793
0.703372 -0.300673 0
0.921267 -0.400048 -0.928588
1.26868 -0.538216 -1.44878
1.61451 -0.657236 -1.75852
1.93021 -0.753486 -1.94417
2.20938 -0.830596 -2.05515
2.48738 -0.90327 -2.11692
2.86376 -1.00461 -2.13732
3.1446 -1.07793 -2.14456
3.29712 -1.1169 -2.14562
0.553752 -0.218011 0
0.677107 -0.292046 -1.08766
0.859466 -0.401071 -1.73212
1.02708 -0.503383 -2.15541
1.17045 -0.593611 -2.44539
1.29096 -0.671711 -2.65053
1.39136 -0.738404 -2.79886
1.49208 -0.81473 -2.92711
1.60243 -0.910665 -3.05433
1.66187 -0.962274 -3.12037
0.335946 -0.138707 0
0.354096 -0.196533 -1.19365
0.365356 -0.285538 -1.93765
0.36055 -0.373214 -2.46897
0.345912 -0.453573 -2.86975
0.326772 -0.525162 -3.18213
0.306483 -0.587616 -3.42966
0.287259 -0.640404 -3.62461
0.271101 -0.681758 -3.76973
0.260119 -0.71714 -3.88467
0.0995493 -0.0734412 0
0.0415476 -0.125048 -1.28404
-0.0566812 -0.203052 -2.11188
-0.158433 -0.27725 -2.72979
-0.252826 -0.342846 -3.2157
-0.336553 -0.399505 -3.60803
-0.408843 -0.447714 -3.92792
-0.469233 -0.487669 -4.18563
-0.516033 -0.518508 -4.3808
-0.542018 -0.5356 -4.48776
-0.111818 -0.0100519 0
-0.211411 -0.0566698 -1.37622
-0.360445 -0.12438 -2.27581
-0.499368 -0.184592 -2.95302
-0.619268 -0.234141 -3.48737
-0.720418 -0.274212 -3.91906
-0.804666 -0.306413 -4.27082
-0.873218 -0.331854 -4.55387
-0.925346 -0.350754 -4.76796
-0.953947 -0.360964 -4.88518
-0.272435 0.0717851 0
-0.393033 0.0387518 -1.45482
-0.567859 -0.0097013 -2.40879
-0.72811 -0.0521645 -3.12091
-0.86609 -0.0860435 -3.67511
-0.983006 -0.112429 -4.11642
-1.08106 -0.132816 -4.47128
-1.16145 -0.148325 -4.7536
-1.22299 -0.159468 -4.96519
-1.25692 -0.165343 -5.08032
-0.369821 0.181351 0
-0.501651 0.17605 -1.48857
-0.694904 0.164487 -2.46997
-0.876799 0.15188 -3.19924
-1.03824 0.140635 -3.76123
-1.17887 0.131301 -4.20377
-1.29963 0.123801 -4.55581
-1.40054 0.117949 -4.83323
-1.47895 0.113675 -5.03953
-1.5226 0.111401 -5.15117
-0.396428 0.307619 0
-0.527353 0.342417 -1.45512
-0.718323 0.387163 -2.42608
-0.898548 0.423021 -3.1521
-1.05969 0.45062 -3.71255
-1.20124 0.472033 -4.15366
-1.32372 0.488805 -4.50406
-1.42674 0.501848 -4.77971
-1.5072 0.511447 -4.98435
-1.55216 0.516607 -5.09496
-0.351042 0.425447 0
-0.460306 0.505941 -1.34244
-0.605 0.620068 -2.24627
-0.727549 0.721184 -2.92533
-0.828241 0.805359 -3.45037
-0.911527 0.874623 -3.86367
-0.980626 0.931323 -4.19181
-1.03707 0.976901 -4.44977
-1.08029 1.01127 -4.64113
-1.10414 1.03003 -4.74451
-0.246212 0.5102 0
-0.310155 0.629197 -1.13925
-0.357085 0.805594 -1.88898
-0.354214 0.969344 -2.43532
-0.319621 1.11087 -2.84489
-0.269354 1.23075 -3.15826
-0.21375 1.33112 -3.40093
-0.159761 1.41321 -3.58768
-0.113653 1.47593 -3.72386
-0.0865476 1.51045 -3.79658
-0.10822 0.550999 0
-0.116897 0.683941 -0.862516
-0.0517238 0.880631 -1.3793
0.0919004 1.0629 -1.7097
0.278211 1.22027 -1.92255
0.479057 1.35353 -2.06048
0.676183 1.46509 -2.14991
0.856269 1.55637 -2.20707
1.00489 1.62612 -2.24175
1.12642 1.68652 -2.25215
0.0329282 0.554684 0
0.066876 0.674732 -0.576154
0.196764 0.841839 -0.86799
0.403873 0.985748 -1.00323
0.648619 1.10199 -1.04675
0.901926 1.195 -1.03869
1.14521 1.2693 -1.00357
1.36462 1.3278 -0.957155
1.61903 1.38932 -0.868223
1.80017 1.43164 -0.794377
0.152589 0.536232 0
0.209267 0.634332 -0.33379
0.345344 0.759252 -0.477861
0.526488 0.854064 -0.520509
0.72343 0.920559 -0.507859
0.917812 0.966396 -0.46704
1.0989 0.997808 -0.413988
1.25884 1.01903 -0.358878
1.46877 1.03617 -0.264594
1.60385 1.04543 -0.200753
0.233586 0.505177 0
0.301389 0.585479 -0.140197
0.421581 0.683709 -0.194922
0.551601 0.7547 -0.209508
0.676001 0.801934 -0.205373
0.788747 0.832601 -0.193097
0.887611 0.852167 -0.177973
0.97114 0.864283 -0.1629
1.07799 0.87261 -0.140286
1.14876 0.876756 -0.124702
0.266085 0.462773 0
0.34258 0.528226 0.0176779
0.455956 0.60917 0.035612
0.559498 0.671258 0.0510781
0.646763 0.717294 0.0621904
0.71871 0.751945 0.0691284
0.777411 0.778435 0.0727835
0.824333 0.798647 0.0741296
0.879698 0.821123 0.0731213
0.917103 0.836011 0.07181
0.248999 0.409479 0
0.337544 0.459687 0.142231
0.466172 0.519795 0.221401
0.582299 0.565946 0.277189
0.680426 0.601631 0.3212
0.762295 0.630289 0.357541
0.830191 0.653823 0.387904
0.885422 0.673043 0.412885
0.952334 0.696294 0.443474
0.997253 0.711922 0.464086
0.191084 0.350899 0
0.297492 0.390118 0.233818
0.464947 0.43083 0.344446
0.628484 0.455031 0.414203
0.77525 0.468463 0.469176
0.903307 0.475857 0.517177
1.01311 0.4799 0.560132
1.10467 0.482054 0.597773
1.22388 0.482122 0.647206
1.30123 0.481739 0.679556
0.110185 0.29425 0
0.236073 0.335538 0.312003
0.452701 0.377408 0.428734
0.678101 0.397768 0.471309
0.887148 0.402597 0.485738
1.07242 0.398317 0.489605
1.23234 0.389298 0.489744
1.36596 0.378474 0.48884
1.54018 0.358519 0.482105
1.65029 0.344947 0.477274
0.0312581 0.238807 0
0.1674 0.294422 0.41221
0.415546 0.363438 0.554768
0.681744 0.412172 0.5764
0.931043 0.442217 0.543037
1.15207 0.459038 0.486179
1.34217 0.467178 0.421779
1.50022 0.469909 0.3591
1.68579 0.468499 0.267577
1.80888 0.4665 0.202958
-0.016854 0.173053 0
0.111896 0.239738 0.551386
0.350421 0.337555 0.783545
0.606682 0.425086 0.858317
0.845271 0.49721 0.851084
1.05514 0.555435 0.802461
1.23419 0.602069 0.735329
1.38197 0.638766 0.664004
1.52417 0.675553 0.576249
1.63277 0.705569 0.49957
-0.0070029 0.0845243 0
0.100113 0.141622 0.701256
0.290594 0.235771 1.07462
0.48707 0.33188 1.28326
0.663987 0.4209 1.39737
0.815437 0.500274 1.45603
0.941814 0.569363 1.48194
1.04425 0.627586 1.4889
1.12169 0.673074 1.48619
1.19193 0.723695 1.47885
0.0789538 -0.0274435 0
0.164961 -0.00448723 0.803177
0.298629 0.0409542 1.30058
0.419257 0.0949231 1.64944
0.516007 0.150326 1.90664
0.590812 0.203358 2.10268
0.647822 0.251908 2.25495
0.690468 0.294348 2.37289
0.720588 0.328384 2.45952
0.74164 0.356287 2.52577
0.243901 -0.148219 0
0.32578 -0.17162 0.810888
0.429109 -0.200421 1.34684
0.499841 -0.220731 1.75566
0.539708 -0.233437 2.08307
0.558044 -0.240849 2.35166
0.562805 -0.244801 2.57373
0.559771 -0.246574 2.75477
0.553394 -0.247074 2.89321
0.548469 -0.246353 3.01605
0.473256 -0.256479 0
0.57657 -0.319306 0.718982
0.694617 -0.412533 1.18974
0.764059 -0.499028 1.54909
0.793452 -0.573907 1.83853
0.797298 -0.637605 2.07757
0.78655 -0.691236 2.27644
0.768826 -0.735369 2.43941
0.745106 -0.783231 2.61626
0.726074 -0.821146 2.75655
0.737907 -0.338291 0
0.887764 -0.419827 0.561427
1.06593 -0.540302 0.900241
1.18432 -0.651762 1.13964
1.25226 -0.748148 1.32074
1.28676 -0.83014 1.46299
1.30062 -0.89921 1.57669
1.3014 -0.97204 1.68932
1.29428 -1.06234 1.82224
1.28852 -1.11092 1.89326
0.999824 -0.394666 0
1.21565 -0.47544 0.389094
1.49124 -0.586792 0.596075
1.70141 -0.68113 0.725607
1.85054 -0.755967 0.814004
1.95549 -0.814818 0.877418
2.03013 -0.861458 0.924352
2.13296 -0.933747 0.982871
2.20372 -0.98579 1.0241
2.24001 -1.01336 1.04561
1.21671 -0.435693 0
1.50667 -0.510728 0.232178
1.90174 -0.605217 0.349025
2.23292 -0.67498 0.431774
2.49396 -0.721537 0.502867
2.69862 -0.751227 0.567374
2.95721 -0.771235 0.659337
3.21073 -0.784074 0.754534
3.39333 -0.791089 0.826771
3.49013 -0.793937 0.866467
1.34695 -0.468238 0
1.69415 -0.54498 0.0827998
2.19175 -0.641549 0.131675
2.63535 -0.714185 0.199959
3.00513 -0.764731 0.291876
3.30921 -0.799198 0.398009
3.80877 -0.829168 0.642591
4.19863 -0.849602 0.849408
4.48344 -0.862747 1.0106
4.6359 -0.869099 1.10076
1.19166 -0.395136 0
1.48966 -0.453764 0.372483
1.88854 -0.520902 0.585495
2.21066 -0.563093 0.738404
2.45248 -0.584939 0.861848
2.6322 -0.593493 0.966636
2.83731 -0.584853 1.11492
3.03615 -0.568124 1.27264
3.17621 -0.55356 1.39016
3.24924 -0.544876 1.454
1.33318 -0.456714 0
1.67877 -0.528854 0.250023
2.15222 -0.616679 0.424499
2.54314 -0.680171 0.588382
2.84046 -0.722898 0.750668
3.06241 -0.75131 0.908058
3.35385 -0.77753 1.21169
3.58704 -0.796388 1.48207
3.75037 -0.808649 1.68761
3.83511 -0.814649 1.80075
1.35459 -0.509345 0
1.69837 -0.604421 0.0803096
2.18136 -0.733835 0.159686
2.59562 -0.844479 0.264849
2.92441 -0.934843 0.388544
3.18084 -1.00872 0.519103
3.54013 -1.12617 0.793548
3.82224 -1.22125 1.02981
4.02384 -1.29099 1.21121
4.12999 -1.32844 1.31167
1.25539 -0.535263 0
1.54067 -0.643103 -0.137293
1.94988 -0.796643 -0.217595
2.31759 -0.934284 -0.24976
2.62768 -1.0509 -0.249021
2.88577 -1.14881 -0.229265
3.24529 -1.29052 -0.164375
3.57095 -1.42013 -0.0951042
3.81009 -1.51568 -0.0396528
3.93856 -1.56717 -0.00816149
1.06113 -0.520466 0
1.25028 -0.615097 -0.353208
1.52058 -0.745196 -0.591141
1.76956 -0.856046 -0.755252
1.98862 -0.945082 -0.868359
2.17949 -1.01619 -0.947583
2.38245 -1.08484 -1.01091
2.65969 -1.17244 -1.07618
2.86599 -1.23598 -1.12144
2.97789 -1.26983 -1.1448
0.812505 -0.46503 0
0.901599 -0.528414 -0.5089
1.01558 -0.607021 -0.833681
1.11047 -0.665111 -1.04987
1.18891 -0.705056 -1.19462
1.25495 -0.732219 -1.29307
1.31091 -0.750673 -1.361
1.37641 -0.768762 -1.41741
1.45242 -0.788675 -1.46849
1.49349 -0.798773 -1.49444
0.546234 -0.383277 0
0.554037 -0.420212 -0.594957
0.535013 -0.463764 -0.947754
0.489404 -0.49462 -1.16599
0.431161 -0.515393 -1.30112
0.369539 -0.529475 -1.3851
0.30993 -0.539147 -1.43718
0.256042 -0.545796 -1.46885
0.205047 -0.551931 -1.48909
0.155251 -0.560351 -1.5044
0.281067 -0.29195 0
0.22998 -0.318673 -0.647895
0.117399 -0.358264 -1.03083
-0.0239483 -0.396796 -1.2759
-0.172808 -0.432262 -1.43799
-0.317197 -0.464117 -1.54851
-0.450395 -0.492127 -1.62564
-0.567383 -0.515958 -1.67975
-0.661494 -0.53472 -1.71624
-0.715017 -0.545253 -1.73468
0.0182616 -0.198472 0
-0.0779115 -0.223767 -0.70067
-0.250464 -0.26965 -1.14744
-0.439575 -0.321129 -1.46964
-0.623245 -0.372025 -1.71341
-0.792296 -0.419379 -1.90358
-0.942692 -0.461762 -2.05429
-1.0714 -0.498147 -2.17299
-1.17303 -0.526922 -2.26135
-1.23016 -0.543108 -2.30924
-0.244325 -0.100865 0
-0.384556 -0.119219 -0.748699
-0.606193 -0.154768 -1.26526
-0.821662 -0.195078 -1.66994
-1.01255 -0.234369 -1.99713
-1.17637 -0.27022 -2.26541
-1.31446 -0.301713 -2.48601
-1.42779 -0.328313 -2.66453
-1.51451 -0.349075 -2.80003
-1.56228 -0.360651 -2.87435
-0.494205 0.00210865 0
-0.684144 0.00129377 -0.760273
-0.966293 -0.00353732 -1.30096
-1.22297 -0.0102481 -1.73233
-1.43784 -0.0167898 -2.08343
-1.61375 -0.0224229 -2.37143
-1.75637 -0.0270084 -2.60768
-1.86976 -0.0305862 -2.79822
-1.95436 -0.0331817 -2.94233
-2.00019 -0.0345522 -3.02117
-0.695567 0.102622 0
-0.932116 0.121888 -0.719101
-1.28029 0.148242 -1.22728
-1.59571 0.171191 -1.62719
-1.85995 0.190321 -1.94762
-2.07697 0.206222 -2.20664
-2.25366 0.219406 -2.41638
-2.39475 0.230141 -2.5837
-2.50047 0.238327 -2.70915
-2.5579 0.242831 -2.77738
-0.799661 0.186466 0
-1.05866 0.221295 -0.640604
-1.44108 0.267767 -1.09363
-1.79102 0.305691 -1.45073
-2.08805 0.334727 -1.73746
-2.33529 0.356812 -1.96973
-2.53911 0.373648 -2.1582
-2.70366 0.386361 -2.30884
-2.82807 0.39546 -2.42197
-2.89608 0.40025 -2.48356
-0.772238 0.240187 0
-1.01082 0.288221 -0.541791
-1.35702 0.352779 -0.938402
-1.6695 0.405607 -1.26416
-1.9326 0.445979 -1.53559
-2.15061 0.476556 -1.76239
-2.32988 0.499738 -1.95117
-2.4744 0.51714 -2.10517
-2.58359 0.529528 -2.22267
-2.64325 0.536022 -2.28733
-0.618393 0.252897 0
-0.791834 0.31343 -0.422007
-1.02205 0.400746 -0.745436
-1.20907 0.478946 -1.02645
-1.35207 0.544266 -1.27229
-1.46104 0.597989 -1.48583
-1.54441 0.641868 -1.66906
-1.60768 0.677038 -1.82209
-1.6532 0.703484 -1.94095
-1.67726 0.71789 -2.0071
-0.380517 0.217191 0
-0.463657 0.281426 -0.279858
-0.533488 0.381214 -0.489195
-0.545246 0.478565 -0.672635
-0.518166 0.56618 -0.836289
-0.470704 0.642793 -0.981258
-0.415064 0.708543 -1.10775
-0.359503 0.763368 -1.21485
-0.311295 0.805864 -1.29892
-0.28271 0.829479 -1.34603
-0.110018 0.134024 0
-0.112403 0.182623 -0.143603
-0.054188 0.260824 -0.22018
0.0608925 0.339758 -0.269918
0.203027 0.412709 -0.306024
0.351462 0.477817 -0.333941
0.493882 0.534585 -0.356202
0.621828 0.582505 -0.37395
0.726134 0.619993 -0.387339
0.841109 0.658933 -0.393546
0.158987 0.0155209 0
0.209933 0.0318889 -0.0631878
0.325828 0.0593147 -0.0564009
0.470352 0.0866772 -0.0208725
0.619063 0.111089 0.024856
0.759594 0.13206 0.0724151
0.886117 0.149728 0.117687
0.994923 0.164221 0.15809
1.13599 0.181125 0.218419
1.22622 0.191656 0.2581
0.412085 -0.117312 0
0.506968 -0.138746 -0.0660508
0.660371 -0.165352 -0.0515133
0.809511 -0.187276 -0.00928715
0.939012 -0.205612 0.0394191
1.04685 -0.221362 0.0868081
1.13473 -0.234975 0.129866
1.21323 -0.248339 0.172556
1.31069 -0.266979 0.230893
1.36252 -0.2771 0.26259
0.638749 -0.238183 0
0.790105 -0.297437 -0.153108
1.01469 -0.371451 -0.181465
1.21736 -0.427779 -0.165893
1.38427 -0.468607 -0.137505
1.5179 -0.49844 -0.107486
1.6235 -0.520542 -0.0798483
1.75624 -0.544222 -0.0407402
1.87116 -0.563736 -0.0054782
1.93182 -0.573942 0.0135771
0.818386 -0.320617 0
1.0344 -0.413965 -0.318346
1.35691 -0.531914 -0.422716
1.65481 -0.619971 -0.433715
1.90912 -0.680375 -0.404355
2.12144 -0.720897 -0.359043
2.32794 -0.749306 -0.295498
2.59925 -0.773136 -0.189902
2.7979 -0.788353 -0.109053
2.90437 -0.795671 -0.0644534
0.921305 -0.347683 0
1.17767 -0.461841 -0.543882
1.56104 -0.614552 -0.768003
1.91804 -0.737916 -0.83175
2.22699 -0.830436 -0.812402
2.48925 -0.898951 -0.752073
2.78953 -0.966682 -0.616568
3.11293 -1.03416 -0.433234
3.35229 -1.0814 -0.289608
3.48156 -1.10591 -0.209146
0.923516 -0.322028 0
1.16364 -0.43659 -0.789321
1.51213 -0.60154 -1.18435
1.82555 -0.749733 -1.37503
2.08866 -0.874362 -1.4502
2.30656 -0.977697 -1.46074
2.52101 -1.09043 -1.41229
2.75984 -1.23318 -1.30712
2.93607 -1.33747 -1.21877
3.03104 -1.39329 -1.16721
0.824715 -0.264427 0
0.997294 -0.365371 -1.01229
1.23332 -0.519341 -1.60145
1.43142 -0.66824 -1.9794
1.58749 -0.802183 -2.23114
1.70976 -0.919657 -2.40355
1.80578 -1.02088 -2.52379
1.91199 -1.17578 -2.66102
1.9969 -1.3085 -2.76788
2.04207 -1.38021 -2.82254
0.654774 -0.198011 0
0.747574 -0.282524 -1.19674
0.867036 -0.412621 -1.96071
0.962622 -0.53958 -2.5194
1.03624 -0.654519 -2.949
1.09364 -0.755756 -3.28884
1.13897 -0.843241 -3.56113
1.17459 -0.916629 -3.77735
1.23189 -1.02181 -4.08275
1.26359 -1.08069 -4.25155
0.460543 -0.132031 0
0.495065 -0.202803 -1.34998
0.54297 -0.307204 -2.24714
0.589782 -0.403684 -2.93311
0.635425 -0.486847 -3.4812
0.679322 -0.557212 -3.92832
0.720381 -0.616107 -4.29538
0.757136 -0.664292 -4.59244
0.787423 -0.701202 -4.81868
0.838472 -0.735799 -5.05112
0.283194 -0.0585236 0
0.287005 -0.117189 -1.47967
0.303188 -0.201006 -2.47198
0.333018 -0.274713 -3.23298
0.372105 -0.335043 -3.84028
0.415525 -0.383731 -4.33436
0.459353 -0.422843 -4.73872
0.500318 -0.453757 -5.06504
0.534719 -0.476744 -5.31232
0.554803 -0.489173 -5.44784
0.145646 0.0377701 0
0.134899 -0.00293937 -1.57777
0.131151 -0.0641171 -2.64024
0.138896 -0.120516 -3.4526
0.15334 -0.168375 -4.09672
0.170773 -0.208084 -4.61706
0.188838 -0.240685 -5.04016
0.20587 -0.2669 -5.37969
0.220208 -0.286651 -5.63583
0.228581 -0.297422 -5.77579
0.056088 0.163618 0
0.0380928 0.155717 -1.62068
0.0177292 0.138093 -2.72536
-0.00126134 0.116936 -3.57681
-0.0210975 0.095821 -4.25481
-0.041605 0.076293 -4.80375
-0.0618089 0.0589729 -5.2506
-0.0805306 0.0442322 -5.60941
-0.0962048 0.0326576 -5.88016
-0.105347 0.0261781 -6.02812
0.0163705 0.306951 0
-0.00040835 0.347721 -1.58166
-0.0192537 0.402894 -2.67274
-0.0398608 0.449929 -3.52133
-0.064858 0.488205 -4.20106
-0.0930006 0.519315 -4.75356
-0.122081 0.544619 -5.20455
-0.149803 0.564899 -5.56738
-0.173421 0.580173 -5.84155
-0.187332 0.588509 -5.99151
0.0238893 0.440382 0
0.0197227 0.535988 -1.43765
0.0311439 0.67978 -2.41807
0.0507184 0.816658 -3.16769
0.0692533 0.938145 -3.75788
0.083945 1.04356 -4.23034
0.0946757 1.13362 -4.61107
0.10206 1.20853 -4.91418
0.106742 1.26651 -5.14135
0.108943 1.29871 -5.26494
0.068645 0.535926 0
0.0839703 0.672283 -1.17828
0.1414 0.882707 -1.92265
0.224595 1.08799 -2.4365
0.315256 1.2735 -2.79974
0.403622 1.43655 -3.06158
0.484858 1.5772 -3.25287
0.55583 1.69501 -3.39224
0.612641 1.78666 -3.48906
0.645407 1.83971 -3.54082
0.13412 0.580791 0
0.165323 0.724616 -0.849246
0.252504 0.938998 -1.29359
0.373578 1.14005 -1.51037
0.506789 1.31582 -1.58995
0.639048 1.46636 -1.59
0.762853 1.59362 -1.54667
0.872703 1.69858 -1.48369
0.964525 1.78688 -1.41241
1.03157 1.87521 -1.32961
0.202411 0.582217 0
0.243187 0.706548 -0.538259
0.334832 0.875065 -0.744805
0.451275 1.0149 -0.761476
0.574617 1.12344 -0.672061
0.694693 1.20692 -0.529618
0.805799 1.27114 -0.366868
0.903661 1.31998 -0.20593
0.992468 1.36617 -0.0181333
1.054 1.40324 0.145847
0.257045 0.556443 0
0.307326 0.656843 -0.290292
0.398986 0.778744 -0.365935
0.50085 0.86368 -0.32349
0.600537 0.916145 -0.220793
0.692663 0.946158 -0.0922453
0.774825 0.961584 0.0420062
0.845265 0.967897 0.168619
0.917362 0.968506 0.326823
0.968431 0.967171 0.451166
0.283344 0.514357 0
0.345226 0.597032 -0.0948656
0.443213 0.693643 -0.0997077
0.540377 0.757806 -0.0618037
0.628602 0.795285 -0.00728663
0.706055 0.815093 0.0509087
0.772614 0.823854 0.106496
0.828116 0.826032 0.155895
0.893705 0.822254 0.219484
0.939681 0.818052 0.265352
0.270907 0.459172 0
0.343911 0.527314 0.066419
0.449762 0.609647 0.123673
0.545882 0.67049 0.172906
0.62778 0.713816 0.212682
0.696622 0.745215 0.243773
0.75405 0.768439 0.267616
0.800966 0.785678 0.285467
0.85607 0.803425 0.30404
0.895034 0.815348 0.316541
0.217156 0.393896 0
0.302506 0.447953 0.197786
0.422575 0.514783 0.318474
0.525911 0.567741 0.407447
0.609049 0.609535 0.478551
0.675411 0.643468 0.537443
0.728414 0.671475 0.586726
0.770219 0.69439 0.627359
0.814513 0.719537 0.671926
0.84759 0.738567 0.705588
0.128106 0.326592 0
0.23212 0.371289 0.302746
0.389094 0.425427 0.475278
0.53194 0.46635 0.600069
0.650678 0.496607 0.702348
0.747113 0.519509 0.790557
0.824753 0.537199 0.867407
0.886142 0.550862 0.933001
0.950566 0.563997 1.006
1.00031 0.573533 1.06341
0.0173663 0.266627 0
0.143674 0.312758 0.399464
0.360225 0.369497 0.614513
0.581319 0.41037 0.755376
0.781676 0.437027 0.859543
0.955402 0.453619 0.942085
1.1025 0.463456 1.00956
1.22346 0.46885 1.06454
1.36132 0.469667 1.12468
1.46135 0.468624 1.16749
-0.0936599 0.215204 0
0.0433248 0.271121 0.512429
0.307155 0.345927 0.785225
0.602779 0.404927 0.945922
0.888687 0.447013 1.04414
1.14861 0.475985 1.10518
1.37669 0.495496 1.14312
1.56939 0.508254 1.16621
1.79226 0.516909 1.17743
1.94978 0.521357 1.18112
-0.175688 0.161978 0
-0.0554881 0.222436 0.644999
0.194595 0.309933 1.00797
0.489621 0.386826 1.22606
0.78428 0.449047 1.35624
1.0581 0.498441 1.43178
1.30221 0.537408 1.47307
1.5109 0.567666 1.49302
1.70725 0.594705 1.49649
1.87579 0.618234 1.48857
-0.195831 0.0937242 0
-0.115686 0.140833 0.76652
0.0543261 0.212601 1.23057
0.254676 0.2805 1.53613
0.45329 0.339965 1.74111
0.636378 0.390912 1.8804
0.798419 0.434003 1.9757
0.9361 0.469572 2.04039
1.04407 0.496955 2.08225
1.11439 0.51599 2.10514
-0.127358 0.00639543 0
-0.0848596 0.0227513 0.835472
-0.00681055 0.0489377 1.36489
0.0719388 0.0756958 1.7372
0.139664 0.10103 2.00821
0.194629 0.124258 2.21057
0.23806 0.145028 2.3641
0.271467 0.162947 2.48024
0.295566 0.177213 2.56378
0.308278 0.185283 2.60797
0.0390563 -0.0908169 0
0.0717464 -0.111478 0.829746
0.104662 -0.142534 1.3586
0.11155 -0.170785 1.73707
0.0962277 -0.194228 2.01969
0.0670307 -0.213177 2.23695
0.0310101 -0.228324 2.40675
-0.00627568 -0.240199 2.53885
-0.0394671 -0.24895 2.63621
-0.059465 -0.253648 2.68862
0.288978 -0.182279 0
0.349907 -0.232831 0.754139
0.407552 -0.30981 1.21712
0.422006 -0.382176 1.53736
0.403336 -0.444894 1.77021
0.365229 -0.498003 1.94559
0.318017 -0.542419 2.08054
0.269318 -0.578712 2.18431
0.226155 -0.606419 2.26014
0.189973 -0.62868 2.31963
0.587148 -0.25802 0
0.709593 -0.321672 0.635175
0.85242 -0.415253 0.995209
0.942867 -0.500238 1.22235
0.98969 -0.571947 1.37279
1.00803 -0.631459 1.47618
1.00929 -0.680482 1.54907
1.00131 -0.720091 1.60077
0.9785 -0.782356 1.66831
0.963796 -0.817353 1.70484
0.887334 -0.320714 0
1.08974 -0.381985 0.510042
1.34911 -0.463379 0.778875
1.54769 -0.528434 0.935732
1.68952 -0.576676 1.03167
1.79039 -0.612031 1.09218
1.86265 -0.637946 1.131
1.95704 -0.671613 1.17053
2.02838 -0.697136 1.19812
2.06524 -0.710358 1.21168
1.14208 -0.380423 0
1.42357 -0.438203 0.398556
1.79812 -0.505349 0.61875
2.09903 -0.548563 0.766976
2.3244 -0.571883 0.878838
2.49195 -0.582031 0.968627
2.67115 -0.57772 1.07916
2.85845 -0.564096 1.20358
2.99065 -0.551877 1.29528
3.05972 -0.544477 1.34473
1.30955 -0.442151 0
1.64752 -0.509672 0.282736
2.10788 -0.589637 0.469803
2.48555 -0.644452 0.635036
2.7713 -0.678426 0.792452
2.98376 -0.698431 0.941827
3.25681 -0.707921 1.21717
3.48175 -0.711862 1.4699
3.63922 -0.712873 1.66146
3.72091 -0.712714 1.7667
				 </DataArray>
			 </PointData>
			 <Points>
				 <DataArray type="Float64" NumberOfComponents="3" format="ascii">
   -882.6850    -882.6850     -76.4000
   -882.6850    -882.6850     -40.6738
   -882.6850    -882.6850     -22.9627
   -882.6850    -882.6850     -12.5742
   -882.6850    -882.6850      -5.8125
   -882.6850    -882.6850      -1.1022
   -882.6850    -882.6850       2.3173
   -882.6850    -882.6850       4.8321
   -882.6850    -882.6850       6.6087
   -882.6850    -882.6850       7.5391
   -882.6850    -846.6570     -76.4000
   -882.6850    -846.6570     -40.1050
   -882.6850    -846.6570     -22.1120
   -882.6850    -846.6570     -11.5581
   -882.6850    -846.6570      -4.6887
   -882.6850    -846.6570       0.0965
   -882.6850    -846.6570       3.5705
   -882.6850    -846.6570       6.1253
   -882.6850    -846.6570       7.9302
   -882.6850    -846.6570       8.8754
   -882.6850    -810.6291     -76.4000
   -882.6850    -810.6291     -40.0916
   -882.6850    -810.6291     -22.0919
   -882.6850    -810.6291     -11.5341
   -882.6850    -810.6291      -4.6622
   -882.6850    -810.6291       0.1248
   -882.6850    -810.6291       3.6001
   -882.6850    -810.6291       6.1558
   -882.6850    -810.6291       7.9614
   -882.6850    -810.6291       8.9069
   -882.6850    -774.6011     -76.4000
   -882.6850    -774.6011     -40.7017
   -882.6850    -774.6011     -23.0044
   -882.6850    -774.6011     -12.6241
   -882.6850    -774.6011      -5.8676
   -882.6850    -774.6011      -1.1611
   -882.6850    -774.6011       2.2558
   -882.6850    -774.6011       4.7686
   -882.6850    -774.6011       6.5438
   -882.6850    -774.6011       7.4735
   -882.6850    -738.5732     -76.4000
   -882.6850    -738.5732     -41.6906
   -882.6850    -738.5732     -24.4836
   -882.6850    -738.5732     -14.3908
   -882.6850    -738.5732      -7.8215
   -882.6850    -738.5732      -3.2454
   -882.6850    -738.5732       0.0769
   -882.6850    -738.5732       2.5200
   -882.6850    -738.5732       4.2461
   -882.6850    -738.5732       5.1500
   -882.6850    -702.5452     -76.4000
   -882.6850    -702.5452     -42.7059
   -882.6850    -702.5452     -26.0022
   -882.6850    -702.5452     -16.2046
   -882.6850    -702.5452      -9.8275
   -882.6850    -702.5452      -5.3852
   -882.6850    -702.5452      -2.1602
   -882.6850    -702.5452       0.2116
   -882.6850    -702.5452       1.8871
   -882.6850    -702.5452       2.7646
   -882.6850    -666.5172     -76.4000
   -882.6850    -666.5172     -43.5707
   -882.6850    -666.5172     -27.2958
   -882.6850    -666.5172     -17.7498
   -882.6850    -666.5172     -11.5363
   -882.6850    -666.5172      -7.2080
   -882.6850    -666.5172      -4.0658
   -882.6850    -666.5172      -1.7549
   -882.6850    -666.5172      -0.1224
   -882.6850    -666.5172       0.7326
   -882.6850    -630.4893     -76.4000
   -882.6850    -630.4893     -44.3064
   -882.6850    -630.4893     -28.3962