<?xml version="1.0"?>
<VTKFile type="UnstructuredGrid" version="1.0" byte_order="LittleEndian" header_type="UInt64">
	 <UnstructuredGrid>
		 <FieldData> 
			 <DataArray type = "Float64" Name = "TimeValue" NumberOfTuples = "1" format = "ascii" RangeMin = "3.000" RangeMax = "3.000"> 
			 3.000 
			 </DataArray > 
		 </FieldData> 
		 <Piece NumberOfPoints="1000" NumberOfCells="441">
			 <PointData Scalars="scalars">
				 <DataArray type="Float64" NumberOfComponents="3" Name="Velocity" format="ascii">
0.806559 -0.499682 0
0.869988 -0.588595 -0.713565
0.945943 -0.721137 -1.22217
1.00758 -0.847341 -1.63048
1.05938 -0.960096 -1.96634
1.10437 -1.05876 -2.24524
1.14368 -1.14376 -2.47678
1.18553 -1.22995 -2.70062
1.24332 -1.34192 -2.97706
1.27471 -1.40244 -3.12569
0.638182 -0.348025 0
0.654672 -0.391473 -0.857677
0.66118 -0.456651 -1.48957
0.659073 -0.518933 -2.01775
0.657008 -0.574513 -2.46776
0.657689 -0.622967 -2.85207
0.661078 -0.664517 -3.17818
0.66623 -0.699166 -3.44857
0.685241 -0.741544 -3.77065
0.70196 -0.771491 -3.99608
0.441897 -0.163173 0
0.416754 -0.144079 -0.869187
0.364857 -0.111127 -1.49907
0.310575 -0.0761076 -2.01841
0.264143 -0.0426063 -2.45591
0.227379 -0.0119482 -2.82603
0.199344 0.0152963 -3.13765
0.178663 0.0386339 -3.39439
0.164378 0.057094 -3.59184
0.159651 0.0737256 -3.77711
0.224478 0.0125368 0
0.161262 0.0813852 -0.740092
0.0556307 0.188086 -1.24022
-0.0489479 0.29118 -1.62763
-0.141172 0.383059 -1.93819
-0.219337 0.462795 -2.19076
-0.284285 0.530855 -2.39684
-0.336867 0.587392 -2.56243
-0.376631 0.631103 -2.68737
-0.398353 0.655356 -2.75561
-0.00278869 0.141567 0
-0.0976244 0.225216 -0.536184
-0.246015 0.345506 -0.863595
-0.389382 0.452352 -1.09671
-0.516482 0.540831 -1.27195
-0.626088 0.613078 -1.40733
-0.719096 0.671756 -1.51323
-0.795973 0.718589 -1.59542
-0.855176 0.753695 -1.65573
-0.887941 0.772782 -1.68807
-0.226143 0.214301 0
-0.339292 0.283741 -0.34486
-0.501676 0.375104 -0.543272
-0.646332 0.447793 -0.685196
-0.767033 0.501763 -0.79608
-0.866568 0.541503 -0.88578
-0.948255 0.570826 -0.959071
-1.0141 0.592284 -1.01816
-1.06389 0.607215 -1.06289
-1.09112 0.614912 -1.08738
-0.43404 0.251715 0
-0.551974 0.302882 -0.204437
-0.697883 0.368099 -0.327847
-0.803278 0.418889 -0.431383
-0.872677 0.456293 -0.52606
-0.916968 0.48383 -0.612575
-0.944567 0.504241 -0.68997
-0.961118 0.519284 -0.756709
-0.970298 0.529836 -0.809762
-0.974119 0.535312 -0.839722
-0.618796 0.284124 0
-0.739307 0.333454 -0.0887709
-0.867718 0.404072 -0.136935
-0.935097 0.469066 -0.181846
-0.955798 0.525766 -0.228404
-0.948054 0.574518 -0.274773
-0.924903 0.615955 -0.318662
-0.895303 0.650308 -0.357963
-0.866519 0.676842 -0.390007
-0.848469 0.691558 -0.408377
-0.771835 0.323806 0
-0.904285 0.388283 0.0508803
-1.04803 0.486624 0.125334
-1.12907 0.582191 0.202594
-1.1621 0.668489 0.273566
-1.16556 0.7443 0.335967
-1.15247 0.809634 0.38954
-1.13162 0.864297 0.434153
-1.10984 0.906776 0.468679
-1.09577 0.93042 0.487841
-0.879026 0.353487 0
-1.02853 0.434472 0.234023
-1.21186 0.55388 0.466036
-1.34724 0.6642 0.691656
-1.44158 0.759135 0.898401
-1.50736 0.839239 1.08181
-1.55364 0.906064 1.2408
-1.58609 0.960557 1.3743
-1.60786 1.00208 1.47828
-1.61879 1.02491 1.53622
-0.9246 0.337961 0
-1.08052 0.421784 0.441941
-1.28551 0.539587 0.829731
-1.45557 0.641752 1.18139
-1.59156 0.724535 1.48991
-1.70103 0.79081 1.75547
-1.78966 0.843697 1.98068
-1.86058 0.885266 2.16669
-1.914 0.916034 2.30981
-1.94316 0.932617 2.38895
-0.902247 0.249212 0
-1.04653 0.313292 0.633706
-1.23405 0.40086 1.15371
-1.38816 0.474366 1.60179
-1.51093 0.532192 1.98049
-1.60975 0.577314 2.29741
-1.68992 0.612535 2.56036
-1.75426 0.639706 2.7739
-1.80286 0.659513 2.93609
-1.82947 0.670078 3.02504
-0.821387 0.0896406 0
-0.945674 0.108519 0.748853
-1.09823 0.131878 1.34745
-1.21309 0.150051 1.85426
-1.29627 0.16389 2.27763
-1.35742 0.174654 2.62898
-1.40319 0.183166 2.91867
-1.43747 0.189868 3.15277
-1.46199 0.194862 3.32992
-1.47492 0.197571 3.42684
-0.701071 -0.102742 0
-0.813481 -0.142035 0.728429
-0.954693 -0.20349 1.30385
-1.06295 -0.261347 1.79233
-1.14175 -0.310586 2.20388
-1.19935 -0.35118 2.54872
-1.24189 -0.384161 2.83562
-1.27322 -0.41037 3.06931
-1.29521 -0.429898 3.2473
-1.30663 -0.44046 3.3451
-0.560044 -0.275251 0
-0.671718 -0.359903 0.568813
-0.834084 -0.488573 1.0053
-0.982788 -0.609228 1.37408
-1.11036 -0.713263 1.68707
-1.21797 -0.800732 1.95219
-1.30782 -0.873301 2.17525
-1.38119 -0.932134 2.35876
-1.43717 -0.976733 2.4997
-1.46796 -1.00115 2.57759
-0.415119 -0.391661 0
-0.52297 -0.493881 0.330769
-0.703051 -0.645869 0.563788
-0.891116 -0.787238 0.750451
-1.06861 -0.909538 0.90495
-1.22892 -1.0132 1.03449
-1.3696 -1.10002 1.14316
-1.48877 -1.17105 1.2326
-1.58216 -1.22533 1.30142
-1.63441 -1.25522 1.33952
-0.287274 -0.445774 0
-0.375079 -0.544749 0.0831479
-0.534089 -0.685115 0.117829
-0.710795 -0.810427 0.128748
-0.883941 -0.916015 0.128198
-1.04399 -1.00406 0.122465
-1.18659 -1.07706 0.114751
-1.30864 -1.1364 0.106815
-1.40497 -1.18156 0.0999082
-1.45909 -1.20638 0.0958276
-0.205503 -0.450044 0
-0.260948 -0.54213 -0.143405
-0.362268 -0.665126 -0.266314
-0.474893 -0.767237 -0.381741
-0.584551 -0.847824 -0.487578
-0.685043 -0.911441 -0.582284
-0.773805 -0.961878 -0.665166
-0.849168 -1.00144 -0.735345
-0.908252 -1.03074 -0.790367
-0.941294 -1.04655 -0.821166
-0.200917 -0.41547 0
-0.232973 -0.507007 -0.356818
-0.281179 -0.628333 -0.609758
-0.325838 -0.726968 -0.81235
-0.363303 -0.802562 -0.978949
-0.393543 -0.860336 -1.11741
-0.41745 -0.904692 -1.23252
-0.435877 -0.938461 -1.3265
-0.449197 -0.962832 -1.39833
-0.456233 -0.975744 -1.43791
-0.292222 -0.34128 0
-0.332485 -0.431332 -0.566946
-0.380219 -0.557541 -0.955567
-0.413482 -0.667067 -1.25229
-0.434489 -0.756132 -1.48503
-0.447016 -0.827794 -1.67065
-0.453948 -0.885289 -1.81973
-0.457285 -0.930717 -1.93809
-0.458456 -0.964497 -2.02662
-0.458599 -0.982763 -2.07471
-0.472402 -0.220893 0
-0.55223 -0.29203 -0.750188
-0.653969 -0.397632 -1.2767
-0.734999 -0.495697 -1.68706
-0.797199 -0.58039 -2.01377
-0.845416 -0.652052 -2.27706
-0.883184 -0.711976 -2.49012
-0.912568 -0.760935 -2.6602
-0.934207 -0.798303 -2.78788
-0.945846 -0.818861 -2.85741
-0.709091 -0.0570979 0
-0.837274 -0.0855556 -0.854888
-1.00443 -0.12872 -1.46699
-1.14098 -0.170346 -1.95565
-1.24819 -0.207694 -2.35306
-1.33294 -0.240352 -2.67899
-1.40044 -0.268401 -2.94645
-1.45369 -0.291811 -3.16232
-1.49334 -0.309971 -3.32576
-1.51482 -0.320068 -3.41524
-0.962519 0.126498 0
-1.13071 0.152836 -0.837458
-1.34577 0.19549 -1.42721
-1.51565 0.23751 -1.89479
-1.64391 0.27494 -2.27454
-1.74139 0.307136 -2.58616
-1.81624 0.334304 -2.84219
-1.8734 0.356616 -3.0491
-1.91484 0.373694 -3.20592
-1.93688 0.383104 -3.29185
-1.20746 0.2892 0
-1.40928 0.35872 -0.693326
-1.66433 0.46829 -1.14228
-1.86182 0.575334 -1.47412
-2.00733 0.671004 -1.73028
-2.11504 0.753885 -1.93284
-2.1956 0.824362 -2.09473
-2.25562 0.882652 -2.22285
-2.29819 0.927536 -2.31848
-2.32048 0.952365 -2.37036
-1.43861 0.393678 0
-1.67822 0.474581 -0.477036
-1.98874 0.596061 -0.729811
-2.23791 0.710003 -0.877674
-2.42851 0.809127 -0.967991
-2.57481 0.89346 -1.02473
-2.68798 0.964278 -1.0609
-2.77488 1.02233 -1.08384
-2.83811 1.06675 -1.09776
-2.87181 1.09122 -1.10417
-1.65613 0.426732 0
-1.94128 0.491646 -0.275513
-2.32467 0.580788 -0.374459
-2.64731 0.657178 -0.393399
-2.90577 0.719105 -0.375247
-3.11258 0.769036 -0.340836
-3.27841 0.809279 -0.300848
-3.40967 0.841245 -0.261501
-3.50756 0.865137 -0.227788
-3.56061 0.878105 -0.207965
-1.84854 0.40054 0
-2.18008 0.444756 -0.133631
-2.63304 0.499977 -0.152826
-3.02067 0.542185 -0.122696
-3.33543 0.572931 -0.0732691
-3.58996 0.59547 -0.0184094
-3.79576 0.612186 0.0351593
-3.95974 0.624553 0.0835097
-4.08262 0.633272 0.122941
-4.14944 0.63782 0.145509
-1.98797 0.336225 0
-2.35747 0.368044 -0.0375511
-2.86018 0.408523 -0.011877
-3.28617 0.440362 0.0388331
-3.62796 0.464297 0.0962115
-3.9011 0.482396 0.152367
-4.11962 0.496218 0.203801
-4.29215 0.506715 0.248481
-4.42048 0.514286 0.284041
-4.48991 0.518298 0.304108
-2.03857 0.250029 0
-2.43118 0.271777 0.0341243
-2.96098 0.301977 0.103445
-3.40308 0.328327 0.184803
-3.75148 0.350068 0.264888
-4.02499 0.367863 0.338389
-4.24025 0.382379 0.403284
-4.40777 0.394019 0.458352
-4.53091 0.402782 0.501509
-4.59699 0.40756 0.525641
-1.97165 0.155539 0
-2.36698 0.159106 0.0706211
-2.90115 0.162295 0.164896
-3.34583 0.163337 0.265739
-3.69444 0.162982 0.361512
-3.96637 0.1619 0.447801
-4.17894 0.160506 0.523144
-4.34332 0.159067 0.586617
-4.46347 0.157801 0.636119
-4.5277 0.157045 0.663718
-1.7808 0.0722474 0
-2.15287 0.0521617 0.0457012
-2.66236 0.0161622 0.105172
-3.09311 -0.0231266 0.165881
-3.43552 -0.0609902 0.221385
-3.7058 -0.0955272 0.269982
-3.91922 -0.125983 0.311509
-4.08564 -0.151841 0.345927
-4.2081 -0.172126 0.372447
-4.27385 -0.183478 0.387119
-1.48939 0.0217605 0
-1.81039 -0.0136387 -0.0387865
-2.25867 -0.0744707 -0.0793173
-2.64778 -0.138957 -0.1282
-2.96523 -0.200115 -0.180711
-3.22179 -0.255389 -0.232486
-3.42858 -0.303857 -0.28072
-3.59268 -0.344861 -0.323313
-3.71514 -0.376954 -0.357671
-3.78153 -0.39489 -0.377234
-1.14266 0.0146338 0
-1.39243 -0.0194506 -0.143474
-1.7479 -0.0739454 -0.301869
-2.06521 -0.128328 -0.478712
-2.33161 -0.177913 -0.657646
-2.55259 -0.221584 -0.827472
-2.73476 -0.259213 -0.9818
-2.88204 -0.290658 -1.11581
-2.99361 -0.315062 -1.22269
-3.05469 -0.32863 -1.28314
-0.787843 0.0465854 0
-0.960958 0.0258406 -0.224054
-1.21079 -0.000121361 -0.458451
-1.43896 -0.0189038 -0.711235
-1.63517 -0.0311393 -0.962643
-1.80145 -0.0387695 -1.19915
-1.94103 -0.0433432 -1.41303
-2.05557 -0.045921 -1.59824
-2.14333 -0.0472169 -1.74571
-2.19175 -0.0476897 -1.82903
-0.457708 0.106072 0
-0.560021 0.101582 -0.260337
-0.708252 0.105639 -0.503824
-0.844902 0.121613 -0.748185
-0.963617 0.144825 -0.981696
-1.06512 0.171055 -1.19623
-1.15094 0.197446 -1.38733
-1.22176 0.221914 -1.55116
-1.27625 0.242292 -1.68072
-1.30639 0.254117 -1.75363
-0.16887 0.18053 0
-0.21192 0.190928 -0.255183
-0.272571 0.214043 -0.461951
-0.326892 0.245136 -0.64388
-0.372935 0.279825 -0.801768
-0.411493 0.314833 -0.937029
-0.443527 0.34801 -1.05143
-0.46958 0.377696 -1.14575
-0.489397 0.40188 -1.21823
-0.500276 0.415739 -1.25828
0.0715765 0.256111 0
0.0692156 0.281683 -0.216294
0.068088 0.31687 -0.379982
0.0693491 0.347978 -0.509036
0.0720286 0.37422 -0.609254
0.0753308 0.396168 -0.686809
0.0787575 0.414402 -0.746739
0.0819747 0.429241 -0.792423
0.084668 0.440538 -0.825321
0.0871254 0.449837 -0.851971
0.263272 0.315147 0
0.274381 0.357396 -0.143531
0.28627 0.407486 -0.273017
0.294462 0.441952 -0.387594
0.300184 0.463259 -0.485058
0.3043 0.4756 -0.566749
0.307301 0.482132 -0.63455
0.30947 0.485014 -0.689605
0.311042 0.485656 -0.7373
0.312141 0.485073 -0.783867
0.415604 0.337069 0
0.414616 0.393284 -0.0359108
0.392348 0.460917 -0.123949
0.35609 0.509312 -0.233038
0.316266 0.541595 -0.345048
0.277912 0.562871 -0.451583
0.243202 0.576828 -0.54848
0.213335 0.585842 -0.632725
0.187239 0.591877 -0.706548
0.159224 0.59748 -0.783321
0.548102 0.304013 0
0.529317 0.364717 0.0951534
0.459134 0.442157 0.0717958
0.360555 0.504224 -0.00252754
0.256522 0.552571 -0.0945999
0.158052 0.590837 -0.188934
0.0698381 0.621522 -0.277926
-0.00553686 0.645958 -0.356855
-0.0647884 0.66433 -0.420612
-0.125842 0.683142 -0.484188
0.681453 0.207681 0
0.666366 0.25817 0.223223
0.583712 0.325729 0.277958
0.457168 0.384235 0.266232
0.318498 0.433736 0.230994
0.184377 0.475931 0.189836
0.0625347 0.511907 0.150041
-0.0425742 0.541982 0.114971
-0.125745 0.565433 0.0870799
-0.210048 0.589431 0.0625076
0.823334 0.0551239 0
0.850044 0.0795418 0.313256
0.824313 0.112776 0.427673
0.744454 0.142459 0.470127
0.641306 0.16831 0.488673
0.533935 0.190817 0.500466
0.432283 0.210277 0.511064
0.342288 0.22669 0.521645
0.241919 0.244084 0.539635
0.163888 0.257276 0.556614
0.961142 -0.129818 0
1.0636 -0.1421 0.334291
1.16471 -0.159187 0.459077
1.21514 -0.17449 0.510449
1.23237 -0.18794 0.538513
1.23167 -0.199913 0.56029
1.22219 -0.210575 0.580778
1.2081 -0.224982 0.608484
1.19263 -0.244873 0.645177
1.18328 -0.255645 0.665867
1.06926 -0.313925 0
1.25417 -0.363295 0.273127
1.50879 -0.428964 0.35124
1.73293 -0.485034 0.358639
1.92234 -0.531982 0.342938
2.08211 -0.571878 0.321474
2.22715 -0.609038 0.297847
2.45649 -0.671783 0.249969
2.62566 -0.718347 0.214926
2.71688 -0.743583 0.19622
1.12546 -0.467268 0
1.35974 -0.544172 0.141366
1.71579 -0.641426 0.13873
2.06399 -0.717975 0.0829954
2.38265 -0.776255 0.0109235
2.66684 -0.821321 -0.0632548
3.03421 -0.869802 -0.17587
3.44988 -0.92008 -0.311584
3.76005 -0.95656 -0.413974
3.92853 -0.976016 -0.470009
1.1227 -0.571403 0
1.35249 -0.66382 -0.0330859
1.70782 -0.776613 -0.119616
2.0615 -0.859487 -0.216692
2.38884 -0.916659 -0.307776
2.68253 -0.955805 -0.388853
3.06646 -0.987178 -0.491925
3.49851 -1.01305 -0.606449
3.82087 -1.03019 -0.691869
3.99595 -1.0387 -0.738269
1.06795 -0.618605 0
1.25421 -0.720125 -0.230457
1.53374 -0.84777 -0.406509
1.80467 -0.945877 -0.53913
2.05056 -1.01727 -0.635484
2.26788 -1.06917 -0.704817
2.49621 -1.11254 -0.758694
2.81127 -1.16136 -0.810069
3.04531 -1.19542 -0.845238
3.17202 -1.21305 -0.863158
0.972207 -0.605275 0
1.10221 -0.711379 -0.446774
1.28524 -0.856534 -0.749182
1.45332 -0.982188 -0.968403
1.60082 -1.08599 -1.12838
1.72845 -1.17148 -1.24616
1.83744 -1.24178 -1.33345
1.99756 -1.3459 -1.43043
2.12948 -1.43106 -1.50447
2.20077 -1.47672 -1.54294
0.842475 -0.527862 0
0.918127 -0.623298 -0.665853
1.01303 -0.76393 -1.13445
1.09279 -0.896336 -1.50404
1.16035 -1.01368 -1.80286
1.21856 -1.11581 -2.04732
1.26875 -1.20346 -2.24776
1.32588 -1.30186 -2.45703
1.3931 -1.4165 -2.68857
1.42953 -1.47843 -2.81275
0.681357 -0.388837 0
0.708567 -0.445641 -0.833291
0.730486 -0.531473 -1.44478
0.742197 -0.614121 -1.95356
0.751665 -0.688381 -2.38546
0.761784 -0.753498 -2.75332
0.772823 -0.809611 -3.06489
0.784049 -0.856595 -3.32285
0.813029 -0.920496 -3.66213
0.833019 -0.960891 -3.87521
0.956316 -0.536987 0
1.08194 -0.640509 -0.672869
1.259 -0.79453 -1.1595
1.4245 -0.939836 -1.54556
1.57383 -1.06799 -1.85621
1.70691 -1.17864 -2.10835
1.82368 -1.27282 -2.31339
2.00167 -1.41054 -2.59832
2.151 -1.52468 -2.83091
2.23221 -1.58631 -2.95539
0.818032 -0.396237 0
0.911217 -0.453714 -0.854107
1.05215 -0.53911 -1.49569
1.19875 -0.619486 -2.02891
1.34415 -0.690084 -2.4759
1.48329 -0.750739 -2.85086
1.61189 -0.802099 -3.16385
1.8007 -0.86664 -3.55167
1.99041 -0.928027 -3.91868
2.09417 -0.961124 -4.11618
0.629371 -0.221849 0
0.676583 -0.214807 -0.893547
0.751304 -0.199011 -1.55433
0.835647 -0.179916 -2.09821
0.924891 -0.160598 -2.55097
1.01398 -0.142442 -2.9286
1.0986 -0.126086 -3.24231
1.18074 -0.111443 -3.51139
1.3223 -0.0932707 -3.88608
1.39967 -0.0833009 -4.08734
0.395787 -0.0535664 0
0.385107 0.00442604 -0.784284
0.367333 0.0953286 -1.32941
0.353337 0.182848 -1.75742
0.344933 0.259863 -2.10207
0.340908 0.325691 -2.38259
0.339767 0.381054 -2.61134
0.340314 0.426441 -2.79495
0.34235 0.462497 -2.93972
0.352324 0.497657 -3.09142
0.136354 0.0732262 0
0.0731054 0.148516 -0.598719
-0.0226009 0.258612 -0.983003
-0.112797 0.357393 -1.26977
-0.192188 0.439408 -1.49438
-0.260951 0.50628 -1.67432
-0.319877 0.560409 -1.81966
-0.369152 0.603438 -1.93563
-0.407519 0.635566 -2.0227
-0.428924 0.652982 -2.07012
-0.124187 0.148818 0
-0.219883 0.214689 -0.418188
-0.347105 0.306887 -0.667631
-0.450554 0.386451 -0.848941
-0.530296 0.450709 -0.99159
-0.592041 0.502077 -1.10764
-0.64032 0.543056 -1.20303
-0.677847 0.57528 -1.28038
-0.705483 0.59915 -1.33926
-0.720354 0.612025 -1.37162
-0.367878 0.192024 0
-0.479098 0.241863 -0.277968
-0.603408 0.312294 -0.426948
-0.677105 0.375456 -0.527638
-0.711106 0.429146 -0.604095
-0.7203 0.474339 -0.665273
-0.715297 0.51213 -0.71515
-0.703201 0.543076 -0.755434
-0.689385 0.566766 -0.786026
-0.680159 0.579832 -0.802825
-0.587618 0.231686 0
-0.716441 0.276243 -0.164421
-0.853494 0.342282 -0.221709
-0.925645 0.405447 -0.23507
-0.948613 0.462285 -0.228829
-0.941836 0.51231 -0.213769
-0.91902 0.555583 -0.195307
-0.88947 0.591934 -0.176637
-0.86063 0.620284 -0.16036
-0.842523 0.636105 -0.150689
-0.778528 0.281239 0
-0.939746 0.335615 -0.0426588
-1.13644 0.415056 0.000713749
-1.27764 0.488498 0.0826557
-1.37104 0.55208 0.177467
-1.43151 0.60611 0.272572
-1.47013 0.651481 0.361553
-1.4942 0.688688 0.440191
-1.50829 0.717168 0.503617
-1.51452 0.732867 0.539722
-0.927811 0.325556 0
-1.1258 0.396083 0.112286
-1.39775 0.494818 0.267232
-1.63129 0.580294 0.437231
-1.82128 0.649495 0.601666
-1.97509 0.704851 0.751845
-2.09956 0.748982 0.884337
-2.1988 0.783632 0.996848
-2.27321 0.809253 1.08512
-2.31368 0.82305 1.13453
-1.01606 0.329163 0
-1.23585 0.408402 0.301294
-1.55019 0.517936 0.581984
-1.83337 0.610995 0.840058
-2.07357 0.684921 1.06569
-2.27479 0.74305 1.2583
-2.44213 0.7887 1.42017
-2.57846 0.824087 1.55273
-2.68237 0.849982 1.65401
-2.7395 0.863828 1.70974
-1.02894 0.260437 0
-1.24791 0.326491 0.492003
-1.55806 0.418561 0.904204
-1.83354 0.498227 1.25944
-2.06392 0.563007 1.55728
-2.25451 0.615207 1.80404
-2.41135 0.657177 2.00677
-2.53802 0.690414 2.16994
-2.63391 0.715179 2.29297
-2.6864 0.728591 2.36008
-0.966003 0.117688 0
-1.16933 0.141611 0.616146
-1.45235 0.172752 1.11788
-1.69758 0.198787 1.54631
-1.89758 0.22007 1.90539
-2.05929 0.237667 2.20371
-2.18972 0.25229 2.44973
-2.29332 0.264261 2.64848
-2.3707 0.273446 2.79883
-2.41268 0.278525 2.88105
-0.839113 -0.0629359 0
-1.02301 -0.0962628 0.60746
-1.28489 -0.152194 1.09001
-1.51773 -0.208282 1.50049
-1.71184 -0.258385 1.84655
-1.87156 -0.301306 2.13657
-2.00222 -0.337274 2.3779
-2.10714 -0.36659 2.57447
-2.18617 -0.388872 2.7242
-2.22927 -0.401085 2.80647
-0.667507 -0.229124 0
-0.828739 -0.306751 0.462015
-1.07425 -0.429882 0.802358
-1.30975 -0.550409 1.07886
-1.51912 -0.657957 1.30652
-1.70052 -0.750847 1.49504
-1.8551 -0.829569 1.65096
-1.98328 -0.894469 1.77761
-2.08222 -0.944305 1.87397
-2.13705 -0.97182 1.9269
-0.476419 -0.345584 0
-0.604051 -0.438499 0.242196
-0.812992 -0.57924 0.379348
-1.02846 -0.712621 0.462934
-1.23077 -0.829687 0.515631
-1.41319 -0.929987 0.549914
-1.57328 -1.01468 0.572741
-1.70899 -1.08439 0.58803
-1.81544 -1.13791 0.597897
-1.87503 -1.16746 0.602714
-0.297221 -0.407929 0
-0.378041 -0.495377 0.0199289
-0.517114 -0.616659 -0.0237996
-0.666764 -0.721876 -0.102317
-0.811151 -0.808152 -0.193478
-0.943624 -0.87841 -0.285055
-1.06123 -0.935507 -0.370635
-1.1617 -0.981172 -0.446092
-1.24094 -1.01548 -0.506795
-1.28544 -1.03417 -0.54128
-0.164754 -0.429717 0
-0.195534 -0.511853 -0.177478
-0.248451 -0.615003 -0.343745
-0.304753 -0.693212 -0.507942
-0.357952 -0.748994 -0.661872
-0.405602 -0.788694 -0.80088
-0.446929 -0.817136 -0.922938
-0.481506 -0.837414 -1.02636
-0.508305 -0.851214 -1.1074
-0.523179 -0.858215 -1.15274
-0.110527 -0.420256 0
-0.106458 -0.509376 -0.37089
-0.0942821 -0.622734 -0.63433
-0.0765775 -0.709714 -0.8438
-0.0558825 -0.772299 -1.0133
-0.0340902 -0.81714 -1.15139
-0.0126504 -0.849437 -1.26389
0.0071403 -0.87257 -1.35405
0.0236623 -0.888372 -1.42188
0.0406667 -0.900218 -1.48068
-0.153014 -0.373434 0
-0.144288 -0.471753 -0.584962
-0.116637 -0.608272 -0.978241
-0.0782649 -0.726045 -1.27184
-0.0366362 -0.821735 -1.49669
0.00425151 -0.898906 -1.67181
0.0422457 -0.961064 -1.80937
0.0757869 -1.0104 -1.91645
0.102871 -1.04724 -1.9952
0.126197 -1.07576 -2.05598
-0.289664 -0.275513 0
-0.305313 -0.362374 -0.798343
-0.305644 -0.489975 -1.35235
-0.287476 -0.607691 -1.78104
-0.260871 -0.709209 -2.12093
-0.231972 -0.79523 -2.39413
-0.203982 -0.867352 -2.61482
-0.178822 -0.926455 -2.79076
-0.158352 -0.971693 -2.92272
-0.14665 -0.996631 -2.99454
-0.497719 -0.124492 0
-0.554056 -0.168706 -0.942502
-0.602546 -0.232215 -1.60975
-0.617564 -0.289919 -2.13914
-0.612043 -0.339328 -2.56886
-0.596305 -0.381069 -2.92131
-0.576452 -0.416025 -3.21081
-0.556215 -0.444664 -3.44477
-0.538553 -0.466586 -3.62211
-0.528069 -0.478673 -3.71929
-0.746306 0.0553569 0
-0.851322 0.069583 -0.953342
-0.96143 0.0983561 -1.60826
-1.02283 0.131519 -2.11648
-1.04962 0.164127 -2.523
-1.05609 0.194113 -2.85305
-1.05146 0.220652 -3.12218
-1.04154 0.243225 -3.33849
-1.03053 0.260949 -3.5018
-1.02328 0.270874 -3.59107
-1.01048 0.219003 0
-1.17234 0.275924 -0.828331
-1.3674 0.368172 -1.34717
-1.50847 0.460356 -1.71669
-1.60473 0.544 -1.99275
-1.67046 0.617222 -2.20516
-1.71572 0.679954 -2.37114
-1.74678 0.732126 -2.50015
-1.76719 0.772459 -2.59508
-1.77727 0.794828 -2.6461
-1.27464 0.326109 0
-1.49923 0.390354 -0.641255
-1.79805 0.485236 -0.991952
-2.04676 0.572392 -1.20661
-2.24428 0.646796 -1.3453
-2.40131 0.70911 -1.43844
-2.52665 0.760776 -1.50259
-2.62553 0.802698 -1.54703
-2.69909 0.834525 -1.57663
-2.73891 0.851974 -1.59144
-1.52555 0.364395 0
-1.80991 0.411293 -0.481099
-2.20561 0.472421 -0.720779
-2.55265 0.52147 -0.851598
-2.84111 0.558798 -0.925891
-3.07911 0.587234 -0.968879
-3.2748 0.609042 -0.993686
-3.43285 0.625647 -1.00755
-3.55255 0.637639 -1.01469
-3.61809 0.643996 -1.01745
-1.7447 0.349415 0
-2.07901 0.377979 -0.37983
-2.54688 0.411241 -0.572509
-2.95849 0.434539 -0.682502
-3.30075 0.45008 -0.749617
-3.58289 0.460526 -0.792561
-3.81454 0.46764 -0.820916
-4.00135 0.472485 -0.839834
-4.14264 0.475651 -0.852027
-4.21993 0.47721 -0.857978
-1.90509 0.305398 0
-2.27847 0.325891 -0.315515
-2.79632 0.351909 -0.480195
-3.24516 0.37312 -0.576577
-3.61255 0.390071 -0.636446
-3.91109 0.403801 -0.675244
-4.15317 0.415007 -0.701101
-4.3464 0.424041 -0.718469
-4.49135 0.430889 -0.729718
-4.57021 0.434643 -0.735226
-1.97306 0.249168 0
-2.37255 0.265931 -0.263547
-2.92359 0.289748 -0.392339
-3.39612 0.311713 -0.456794
-3.77812 0.33103 -0.487029
-4.08479 0.347794 -0.498653
-4.33079 0.362164 -0.500172
-4.52532 0.374165 -0.496539
-4.67013 0.383487 -0.491082
-4.74852 0.388678 -0.48715
-1.91832 0.190623 0
-2.32113 0.198757 -0.229153
-2.87763 0.207655 -0.334231
-3.35433 0.213218 -0.377889
-3.73854 0.216384 -0.388981
-4.04583 0.2181 -0.383092
-4.29138 0.218965 -0.368917
-4.48486 0.219338 -0.351715
-4.62846 0.219441 -0.335441
-4.70602 0.219436 -0.325388
-1.73129 0.14125 0
-2.10272 0.137302 -0.230979
-2.61538 0.123301 -0.358262
-3.05357 0.102319 -0.434524
-3.40579 0.0786875 -0.481134
-3.68672 0.0551163 -0.509784
-3.91064 0.0331159 -0.527241
-4.08666 0.0137084 -0.537552
-4.21705 -0.00191907 -0.543201
-4.28739 -0.010804 -0.545529
-1.43596 0.113896 0
-1.74023 0.10345 -0.26731
-2.15208 0.0779207 -0.463498
-2.49603 0.0439495 -0.628676
-2.76669 0.00725669 -0.769804
-2.97861 -0.028694 -0.890097
-3.14486 -0.0619611 -0.991731
-3.27382 -0.0911772 -1.07557
-3.36834 -0.114648 -1.14005
-3.41895 -0.127977 -1.1757
-1.08292 0.115088 0
-1.29852 0.108114 -0.311597
-1.57318 0.092383 -0.585396
-1.78464 0.0720737 -0.851806
-1.93752 0.0503149 -1.10252
-2.04767 0.0290183 -1.33074
-2.1275 0.00928621 -1.53274
-2.18502 -0.00807648 -1.70509
-2.22454 -0.022051 -1.84092
-2.24473 -0.0299982 -1.91717
-0.725041 0.143138 0
-0.85329 0.146202 -0.33356
-0.996952 0.154185 -0.643315
-1.08508 0.165668 -0.957324
-1.12995 0.178793 -1.26081
-1.14755 0.192166 -1.54211
-1.14911 0.204889 -1.79431
-1.14209 0.216287 -2.01152
-1.13197 0.225574 -2.18385
-1.12471 0.230895 -2.28102
-0.397542 0.191974 0
-0.457248 0.206125 -0.319466
-0.510887 0.236086 -0.601216
-0.527052 0.274835 -0.875485
-0.517838 0.317127 -1.13393
-0.494882 0.359271 -1.36964
-0.465855 0.398895 -1.57871
-0.435907 0.43416 -1.75742
-0.40946 0.462786 -1.89847
-0.39363 0.479154 -1.97775
-0.116733 0.252921 0
-0.12838 0.276742 -0.275268
-0.129374 0.317848 -0.492286
-0.116216 0.364008 -0.680524
-0.0961102 0.410693 -0.842748
-0.0738403 0.455227 -0.981158
-0.0520297 0.495978 -1.0979
-0.0322926 0.531606 -1.19394
-0.0161685 0.560185 -1.26763
-0.00693084 0.576411 -1.3083
0.111161 0.313994 0
0.131359 0.347036 -0.211352
0.164911 0.39179 -0.369007
0.197665 0.430712 -0.492243
0.225749 0.463126 -0.587638
0.248659 0.489961 -0.661474
0.266885 0.512075 -0.718658
0.280995 0.529952 -0.762395
0.291509 0.543853 -0.794888
0.302107 0.557963 -0.827899
0.286163 0.359638 0
0.320116 0.402566 -0.130741
0.369058 0.451218 -0.252201
0.414652 0.482936 -0.359755
0.454755 0.501419 -0.450879
0.489335 0.51131 -0.527031
0.518698 0.515864 -0.590152
0.542968 0.517225 -0.641402
0.569601 0.516151 -0.696789
0.590276 0.514511 -0.739544
0.418093 0.372507 0
0.446438 0.42501 -0.031448
0.479153 0.482012 -0.129103
0.50687 0.51656 -0.250062
0.532592 0.53475 -0.372327
0.55719 0.54301 -0.486899
0.580361 0.54553 -0.589858
0.601291 0.544922 -0.678538
0.626022 0.541774 -0.783693
0.644455 0.538829 -0.862713
0.528065 0.337013 0
0.544471 0.395953 0.0865318
0.541452 0.464211 0.0240777
0.519906 0.511619 -0.0984832
0.492784 0.543249 -0.23737
0.46633 0.564821 -0.373534
0.442901 0.579956 -0.498442
0.423375 0.590712 -0.607083
0.402697 0.60055 -0.71739
0.383067 0.609238 -0.813626
0.640186 0.243449 0
0.662296 0.300542 0.21458
0.646689 0.373676 0.211721
0.589767 0.432617 0.121669
0.513568 0.478848 0.00472295
0.432348 0.515723 -0.11371
0.353979 0.545521 -0.222947
0.283503 0.56942 -0.317604
0.215279 0.590842 -0.403476
0.146405 0.611913 -0.482062
0.766984 0.0937095 0
0.829411 0.134879 0.330205
0.863363 0.194592 0.401298
0.837589 0.24969 0.369879
0.774932 0.297638 0.304003
0.694868 0.338741 0.231441
0.610024 0.373594 0.163312
0.529172 0.40244 0.104458
0.42236 0.43625 0.0424568
0.343531 0.460255 0.000770057
0.900557 -0.0938846 0
1.03527 -0.0842495 0.400529
1.18688 -0.0610265 0.535774
1.27814 -0.0311502 0.567909
1.32076 -2.4186e-05 0.562579
1.33203 0.0294807 0.545658
1.3248 0.0560065 0.527155
1.3028 0.0841018 0.511028
1.27152 0.114376 0.498933
1.25233 0.130888 0.492437
1.018 -0.28797 0
1.23161 -0.320092 0.393847
1.52905 -0.350825 0.557454
1.78716 -0.364228 0.63594
1.99856 -0.366436 0.682047
2.17057 -0.362874 0.714926
2.32287 -0.356688 0.74357
2.5581 -0.349007 0.78671
2.72934 -0.342298 0.81931
2.82081 -0.338333 0.837275
1.09699 -0.455863 0
1.35714 -0.528175 0.294624
1.74916 -0.614285 0.430898
2.12597 -0.675551 0.517107
2.46577 -0.716822 0.585754
2.76592 -0.744833 0.645678
3.16372 -0.769898 0.720488
3.60452 -0.792533 0.801372
3.93294 -0.807996 0.862819
4.1112 -0.815894 0.896618
1.12828 -0.574598 0
1.38156 -0.674542 0.11697
1.76372 -0.800456 0.170042
2.1326 -0.897765 0.217938
2.46641 -0.969426 0.271009
2.76184 -1.02249 0.326896
3.15367 -1.07511 0.415149
3.58163 -1.12491 0.51764
3.90069 -1.16018 0.596074
4.07393 -1.17866 0.639384
1.11582 -0.633793 0
1.32738 -0.748523 -0.108235
1.63205 -0.899481 -0.180667
1.91105 -1.02322 -0.21237
2.15192 -1.11992 -0.213013
2.35676 -1.1956 -0.194781
2.57242 -1.26925 -0.15144
2.846 -1.35863 -0.0734167
3.04788 -1.42312 -0.0118232
3.15669 -1.45735 0.0228642
1.06693 -0.630329 0
1.2338 -0.750632 -0.359855
1.46321 -0.918577 -0.598502
1.66361 -1.06667 -0.759733
1.83005 -1.19049 -0.866468
1.96714 -1.2932 -0.936585
2.08057 -1.37905 -0.982529
2.24646 -1.51881 -1.02673
2.36794 -1.62117 -1.05496
2.43304 -1.67607 -1.06856
0.982566 -0.562674 0
1.11534 -0.672628 -0.615953
1.30005 -0.834779 -1.05463
1.4686 -0.986441 -1.39544
1.61692 -1.11937 -1.66416
1.74629 -1.23367 -1.87839
1.85786 -1.33066 -2.05002
2.02524 -1.47628 -2.28956
2.16167 -1.59433 -2.47994
2.23566 -1.65802 -2.58147
0.855775 -0.434388 0
0.957634 -0.505551 -0.821309
1.10909 -0.612189 -1.43546
1.26292 -0.713404 -1.94304
1.41257 -0.80292 -2.36658
1.55387 -0.880264 -2.72065
1.68328 -0.946059 -3.01546
1.87917 -1.03267 -3.39673
2.06473 -1.11137 -3.74102
2.16616 -1.15386 -3.92621
				 </DataArray>
			 </PointData>
			 <Points>
				 <DataArray type="Float64" NumberOfComponents="3" format="ascii">
   -882.6850    -882.6850     -76.4000
   -882.6850    -882.6850     -42.6031
   -882.6850    -882.6850     -25.8485
   -882.6850    -882.6850     -16.0210
   -882.6850    -882.6850      -9.6244
   -882.6850    -882.6850      -5.1686
   -882.6850    -882.6850      -1.9337
   -882.6850    -882.6850       0.4453
   -882.6850    -882.6850       2.1259
   -882.6850    -882.6850       3.0061
   -882.6850    -846.6570     -76.4000
   -882.6850    -846.6570     -43.1328
   -882.6850    -846.6570     -26.6408
   -882.6850    -846.6570     -16.9673
   -882.6850    -846.6570     -10.6710
   -882.6850    -846.6570      -6.2850
   -882.6850    -846.6570      -3.1008
   -882.6850    -846.6570      -0.7591
   -882.6850    -846.6570       0.8952
   -882.6850    -846.6570       1.7616
   -882.6850    -810.6291     -76.4000
   -882.6850    -810.6291     -43.6322
   -882.6850    -810.6291     -27.3878
   -882.6850    -810.6291     -17.8595
   -882.6850    -810.6291     -11.6577
   -882.6850    -810.6291      -7.3376
   -882.6850    -810.6291      -4.2012
   -882.6850    -810.6291      -1.8947
   -882.6850    -810.6291      -0.2652
   -882.6850    -810.6291       0.5882
   -882.6850    -774.6011     -76.4000
   -882.6850    -774.6011     -44.1070
   -882.6850    -774.6011     -28.0980
   -882.6850    -774.6011     -18.7078
   -882.6850    -774.6011     -12.5959
   -882.6850    -774.6011      -8.3383
   -882.6850    -774.6011      -5.2474
   -882.6850    -774.6011      -2.9743
   -882.6850    -774.6011      -1.3684
   -882.6850    -774.6011      -0.5274
   -882.6850    -738.5732     -76.4000
   -882.6850    -738.5732     -44.5479
   -882.6850    -738.5732     -28.7574
   -882.6850    -738.5732     -19.4954
   -882.6850    -738.5732     -13.4669
   -882.6850    -738.5732      -9.2675
   -882.6850    -738.5732      -6.2187
   -882.6850    -738.5732      -3.9767
   -882.6850    -738.5732      -2.3927
   -882.6850    -738.5732      -1.5632
   -882.6850    -702.5452     -76.4000
   -882.6850    -702.5452     -44.8571
   -882.6850    -702.5452     -29.2199
   -882.6850    -702.5452     -20.0478
   -882.6850    -702.5452     -14.0779
   -882.6850    -702.5452      -9.9192
   -882.6850    -702.5452      -6.9000
   -882.6850    -702.5452      -4.6797
   -882.6850    -702.5452      -3.1111
   -882.6850    -702.5452      -2.2897
   -882.6850    -666.5172     -76.4000
   -882.6850    -666.5172     -44.9885
   -882.6850    -666.5172     -29.4165
   -882.6850    -666.5172     -20.2826