<?xml version="1.0"?>
<VTKFile type="UnstructuredGrid" version="1.0" byte_order="LittleEndian" header_type="UInt64">
	 <UnstructuredGrid>
		 <FieldData> 
			 <DataArray type = "Float64" Name = "TimeValue" NumberOfTuples = "1" format = "ascii" RangeMin = "7.000" RangeMax = "7.000"> 
			 7.000 
			 </DataArray > 
		 </FieldData> 
		 <Piece NumberOfPoints="1000" NumberOfCells="441">
			 <PointData Scalars="scalars">
				 <DataArray type="Float64" NumberOfComponents="3" Name="Velocity" format="ascii">
-0.630448 0.133141 0
-0.753647 0.186853 -0.237853
-0.920652 0.270866 -0.297344
-1.06321 0.353796 -0.28176
-1.17907 0.429315 -0.236277
-1.27289 0.496023 -0.181043
-1.34882 0.55375 -0.125483
-1.40933 0.602207 -0.0747502
-1.45468 0.63996 -0.0331908
-1.47933 0.661011 -0.00937016
-0.796157 0.179384 0
-0.931536 0.227073 -0.102884
-1.10967 0.297352 -0.0431242
-1.2562 0.362587 0.0867456
-1.37132 0.419209 0.23868
-1.46193 0.467461 0.390408
-1.53357 0.508109 0.531321
-1.5896 0.54155 0.654958
-1.63097 0.567223 0.75407
-1.65324 0.581404 0.810253
-0.864231 0.209958 0
-0.993079 0.238362 -0.00857795
-1.16162 0.271544 0.111973
-1.29999 0.293912 0.285546
-1.40898 0.307483 0.469963
-1.4952 0.315234 0.646404
-1.5638 0.319309 0.806385
-1.61781 0.321121 0.944662
-1.65792 0.321634 1.05443
-1.67961 0.321607 1.1163
-0.829285 0.239272 0
-0.925796 0.253279 0.0348504
-1.04783 0.260672 0.153198
-1.14504 0.255246 0.29999
-1.22021 0.242299 0.445975
-1.27909 0.225995 0.57993
-1.32575 0.208908 0.69784
-1.36244 0.192764 0.79754
-1.38971 0.179185 0.875421
-1.40447 0.171268 0.918868
-0.716112 0.277926 0
-0.76266 0.295499 0.0631076
-0.812363 0.310791 0.167007
-0.844374 0.316416 0.278947
-0.864549 0.316227 0.381808
-0.877701 0.313104 0.470787
-0.886584 0.308708 0.545471
-0.892694 0.304043 0.60621
-0.896776 0.299887 0.652214
-0.898834 0.297394 0.67735
-0.56525 0.319322 0
-0.566027 0.355135 0.123003
-0.556277 0.40171 0.255095
-0.541612 0.441565 0.386831
-0.527314 0.475263 0.506945
-0.514985 0.50403 0.611747
-0.50485 0.528578 0.700814
-0.49681 0.549096 0.774161
-0.49086 0.565083 0.830325
-0.487664 0.574009 0.86125
-0.40789 0.340378 0
-0.384404 0.392056 0.227856
-0.357776 0.459634 0.429436
-0.347352 0.516066 0.623263
-0.351195 0.561952 0.802995
-0.363977 0.599659 0.964542
-0.381273 0.630829 1.10611
-0.399754 0.656242 1.22597
-0.416421 0.675683 1.31988
-0.426515 0.686412 1.37242
-0.250666 0.315447 0
-0.216278 0.366204 0.347888
-0.192582 0.42415 0.607801
-0.204882 0.461934 0.833125
-0.2432 0.484095 1.03189
-0.295407 0.49634 1.20639
-0.352577 0.502552 1.35764
-0.408134 0.505177 1.48509
-0.455738 0.505817 1.5848
-0.483804 0.505696 1.64056
-0.082648 0.233405 0
-0.0261715 0.265154 0.441413
0.0258619 0.289834 0.709839
0.0358797 0.290719 0.896946
0.0140811 0.276154 1.03569
-0.0260119 0.25379 1.14278
-0.0743104 0.228595 1.22728
-0.123446 0.203914 1.29379
-0.166638 0.182729 1.34336
-0.192455 0.170241 1.37028
0.102974 0.106491 0
0.206399 0.108267 0.478433
0.341488 0.092072 0.701835
0.445094 0.0591432 0.795663
0.517681 0.0185355 0.820222
0.567418 -0.0236966 0.808776
0.601228 -0.0640666 0.779904
0.623864 -0.100227 0.744739
0.638645 -0.131687 0.70932
0.649414 -0.168858 0.667096
0.292875 -0.0351404 0
0.457649 -0.0629689 0.448028
0.702166 -0.112742 0.591537
0.930775 -0.165038 0.578753
1.13134 -0.213154 0.489564
1.30456 -0.255205 0.367903
1.45253 -0.290956 0.237916
1.59058 -0.3256 0.0934917
1.76612 -0.376335 -0.12439
1.86122 -0.403519 -0.244588
0.455264 -0.159441 0
0.669711 -0.203722 0.365832
0.991545 -0.266816 0.424887
1.2975 -0.320683 0.332699
1.57032 -0.362676 0.174903
1.80917 -0.394655 -0.00391347
2.01542 -0.418824 -0.180602
2.29979 -0.450324 -0.476256
2.54588 -0.476467 -0.742417
2.67953 -0.490108 -0.888372
0.554057 -0.247056 0
0.788803 -0.289583 0.270433
1.12973 -0.341644 0.269545
1.43915 -0.379864 0.139589
1.70265 -0.406387 -0.0408951
1.92423 -0.42491 -0.232696
2.10926 -0.438049 -0.416297
2.38241 -0.453895 -0.747875
2.59164 -0.465269 -1.00916
2.70442 -0.471142 -1.15212
0.564086 -0.294006 0
0.792339 -0.324532 0.197017
1.12027 -0.352137 0.178189
1.41123 -0.363807 0.0528615
1.65188 -0.366363 -0.116016
1.84817 -0.364729 -0.295595
2.00747 -0.36148 -0.468619
2.23074 -0.353403 -0.7778
2.40194 -0.346725 -1.0259
2.49348 -0.343036 -1.16202
0.478959 -0.303392 0
0.681983 -0.32423 0.153895
0.989601 -0.33235 0.160989
1.27978 -0.320773 0.087584
1.53277 -0.299459 -0.0253084
1.74809 -0.274989 -0.153284
1.92883 -0.250844 -0.281802
2.18161 -0.210026 -0.509314
2.39041 -0.174932 -0.707369
2.50283 -0.155717 -0.816669
0.309341 -0.275002 0
0.466296 -0.294606 0.123687
0.730576 -0.301343 0.179364
1.00856 -0.286527 0.193106
1.27239 -0.259428 0.18017
1.51173 -0.22724 0.151806
1.72251 -0.194365 0.115931
1.98981 -0.14611 0.0498475
2.25971 -0.0947506 -0.0255788
2.4062 -0.0664157 -0.0677798
0.0768995 -0.201375 0
0.161104 -0.221418 0.0861225
0.326125 -0.237867 0.170475
0.521166 -0.23924 0.253374
0.719953 -0.230006 0.329596
0.908536 -0.214904 0.396997
1.07961 -0.197307 0.455056
1.2279 -0.179661 0.503447
1.4378 -0.151368 0.562125
1.56881 -0.133164 0.597758
-0.18979 -0.0755239 0
-0.195596 -0.0830781 0.0509367
-0.175802 -0.0931066 0.12601
-0.129214 -0.100666 0.217674
-0.0696101 -0.10546 0.314329
-0.00679645 -0.108068 0.408503
0.0535177 -0.109138 0.495722
0.107584 -0.109222 0.572553
0.15153 -0.108792 0.634485
0.176642 -0.10837 0.66975
-0.457645 0.0937647 0
-0.547986 0.117434 0.0627009
-0.667538 0.146605 0.13236
-0.765203 0.167512 0.208267
-0.841283 0.181146 0.284608
-0.900926 0.189754 0.357399
-0.948134 0.195051 0.424102
-0.985236 0.19818 0.482545
-1.01281 0.199882 0.529527
-1.02774 0.200576 0.556246
-0.693706 0.273538 0
-0.846494 0.33607 0.164098
-1.06262 0.422603 0.291592
-1.25302 0.496115 0.398402
-1.41077 0.554468 0.488172
-1.54023 0.600305 0.563734
-1.64611 0.636263 0.627092
-1.73125 0.664108 0.679148
-1.7955 0.684465 0.719118
-1.83061 0.695343 0.74121
-0.871318 0.417476 0
-1.0611 0.504059 0.352522
-1.32873 0.627938 0.615977
-1.56207 0.738433 0.828726
-1.7524 0.830683 1.00131
-1.9059 0.906636 1.14189
-2.02929 0.96877 1.2564
-2.12694 1.01866 1.34819
-2.19965 1.05623 1.41728
-2.239 1.07671 1.45496
-0.972802 0.492909 0
-1.17735 0.57225 0.564732
-1.46542 0.682246 0.984376
-1.71551 0.778178 1.32613
-1.91814 0.857453 1.60666
-2.08025 0.92251 1.83771
-2.20949 0.975748 2.02766
-2.31095 1.01857 2.18106
-2.38597 1.0509 2.29721
-2.42637 1.06857 2.36078
-0.989032 0.502235 0
-1.18727 0.552428 0.724149
-1.46977 0.611436 1.23761
-1.71929 0.653578 1.64527
-1.92504 0.682524 1.97618
-2.0923 0.702732 2.24746
-2.22751 0.717127 2.47014
-2.33493 0.727432 2.64995
-2.41512 0.734513 2.78615
-2.45858 0.738142 2.86075
-0.92177 0.47567 0
-1.08992 0.502772 0.81394
-1.33071 0.522311 1.33985
-1.54651 0.522671 1.72645
-1.7278 0.511919 2.02361
-1.87797 0.496141 2.258
-2.00148 0.47888 2.4451
-2.10109 0.462325 2.59313
-2.17638 0.448331 2.70362
-2.21753 0.440162 2.76357
-0.787098 0.440942 0
-0.900741 0.46974 0.884125
-1.05563 0.495153 1.3995
-1.18854 0.503023 1.73599
-1.29717 0.499474 1.96716
-1.38568 0.489921 2.13199
-1.45778 0.477789 2.25244
-1.5156 0.4653 2.34078
-1.55916 0.454306 2.40277
-1.58294 0.447743 2.43501
-0.612114 0.4007 0
-0.655042 0.449243 0.996176
-0.693506 0.514927 1.55823
-0.707073 0.569539 1.90382
-0.704733 0.612103 2.12267
-0.694106 0.644995 2.26408
-0.679864 0.670416 2.35644
-0.664947 0.689836 2.41637
-0.65172 0.70387 2.45351
-0.643798 0.711306 2.47094
-0.426145 0.336748 0
-0.39557 0.396983 1.15899
-0.318917 0.489237 1.84794
-0.219332 0.576825 2.29576
-0.114412 0.653385 2.59513
-0.0134459 0.718596 2.79952
0.0788379 0.773331 2.94094
0.159207 0.818148 3.03854
0.223412 0.852397 3.10294
0.259755 0.87125 3.13483
-0.256036 0.231417 0
-0.157847 0.275228 1.31469
0.012362 0.344009 2.14422
0.188887 0.410352 2.71914
0.351624 0.468929 3.12901
0.495099 0.519225 3.42769
0.618443 0.56174 3.6485
0.721204 0.596768 3.81131
0.800722 0.623675 3.92567
0.861059 0.646299 4.01316
-0.127307 0.0850457 0
0.0274558 0.0875904 1.39255
0.270951 0.0944613 2.2959
0.498214 0.102841 2.93727
0.688496 0.111132 3.40453
0.842492 0.11879 3.75221
0.965313 0.125625 4.01452
1.06125 0.131503 4.21168
1.14547 0.138146 4.38816
1.21418 0.145228 4.54238
-0.0618747 -0.0804498 0
0.124958 -0.126553 1.3563
0.412733 -0.185499 2.24786
0.673099 -0.230621 2.88875
0.883187 -0.262621 3.36153
1.04647 -0.284955 3.71791
1.17134 -0.300463 3.99032
1.2649 -0.311082 4.19765
1.36756 -0.322743 4.44122
1.43607 -0.33055 4.60827
-0.0670033 -0.2305 0
0.110164 -0.314068 1.21072
0.387397 -0.417617 2.03253
0.644652 -0.491668 2.65114
0.858442 -0.539156 3.13073
1.02987 -0.568063 3.51001
1.16517 -0.584721 3.81289
1.26971 -0.59349 4.05243
1.3984 -0.602422 4.33596
1.48727 -0.608198 4.5294
-0.125944 -0.335579 0
0.00266249 -0.435089 0.995436
0.212588 -0.556704 1.71904
0.421122 -0.642071 2.31408
0.608312 -0.695629 2.81479
0.770434 -0.727327 3.23882
0.908047 -0.744852 3.59663
1.02162 -0.753432 3.8922
1.13087 -0.757728 4.16035
1.24264 -0.761396 4.40312
-0.203719 -0.386539 0
-0.137129 -0.484669 0.759836
-0.0166883 -0.609725 1.36417
0.119133 -0.705496 1.90852
0.25574 -0.774097 2.39889
0.385647 -0.822981 2.83461
0.50448 -0.857993 3.21501
0.608509 -0.882933 3.53695
0.692118 -0.899887 3.78945
0.752092 -0.91012 3.95647
-0.264171 -0.3939 0
-0.250963 -0.482985 0.534259
-0.210735 -0.606683 0.992743
-0.147965 -0.714843 1.43038
-0.0722526 -0.804606 1.83848
0.00806986 -0.878672 2.20863
0.0869162 -0.939632 2.53589
0.159307 -0.988944 2.81511
0.219399 -1.02635 3.03524
0.254247 -1.04686 3.15888
-0.281816 -0.375274 0
-0.307594 -0.450706 0.332008
-0.33127 -0.563318 0.625648
-0.335511 -0.670886 0.908783
-0.324595 -0.767181 1.17279
-0.304628 -0.851486 1.41145
-0.280385 -0.924083 1.62162
-0.25551 -0.984851 1.80026
-0.233485 -1.03212 1.94064
-0.220254 -1.05845 2.01933
-0.241343 -0.346328 0
-0.291434 -0.402913 0.168164
-0.361108 -0.487905 0.313882
-0.420063 -0.569883 0.44753
-0.46657 -0.643869 0.56635
-0.502932 -0.709012 0.669655
-0.531388 -0.765322 0.757854
-0.553411 -0.812574 0.831019
-0.569521 -0.849386 0.887462
-0.578137 -0.869912 0.918717
-0.133319 -0.319098 0
-0.186623 -0.355602 0.0570335
-0.269749 -0.404079 0.113517
-0.350161 -0.44497 0.162792
-0.421841 -0.478092 0.202532
-0.484112 -0.504935 0.233701
-0.53736 -0.526714 0.257846
-0.581689 -0.544128 0.276195
-0.616034 -0.557216 0.289335
-0.635122 -0.564347 0.296239
0.042754 -0.301398 0
0.0183656 -0.324779 -0.00593448
-0.0237601 -0.3464 0.0298103
-0.0670451 -0.354752 0.0775313
-0.106585 -0.35427 0.124859
-0.141176 -0.348973 0.167745
-0.170724 -0.34143 0.205003
-0.195214 -0.333321 0.236142
-0.214087 -0.326022 0.260236
-0.224531 -0.321613 0.273589
0.268761 -0.294372 0
0.309622 -0.317256 -0.0476416
0.371977 -0.335923 0.00628754
0.433591 -0.339597 0.10244
0.490614 -0.333946 0.21056
0.542004 -0.323668 0.316891
0.587345 -0.311639 0.41492
0.626059 -0.299698 0.500592
0.666874 -0.284257 0.593759
0.700291 -0.270033 0.671592
0.503498 -0.291712 0
0.629317 -0.324099 -0.100906
0.831019 -0.361453 -0.0392795
1.0332 -0.38793 0.0931921
1.21808 -0.406505 0.248287
1.3812 -0.420125 0.403353
1.52188 -0.430509 0.547485
1.68987 -0.439213 0.739527
1.86059 -0.446221 0.94429
1.95296 -0.449999 1.05591
0.692471 -0.284014 0
0.879712 -0.325847 -0.181313
1.17571 -0.384388 -0.159317
1.46504 -0.438152 -0.054248
1.72191 -0.486036 0.0760689
1.94189 -0.528464 0.206666
2.13584 -0.567813 0.33489
2.42056 -0.630225 0.55413
2.62987 -0.676978 0.717935
2.7423 -0.702456 0.806872
0.788627 -0.264887 0
0.971795 -0.306996 -0.275745
1.2415 -0.369433 -0.331887
1.48583 -0.429079 -0.306046
1.6885 -0.482731 -0.255621
1.85179 -0.529974 -0.202459
1.99014 -0.57459 -0.150256
2.18226 -0.648029 -0.0664492
2.32031 -0.702452 -0.00506264
2.39324 -0.73188 0.0277164
0.771013 -0.233458 0
0.88965 -0.266418 -0.356793
1.03338 -0.314167 -0.485876
1.13566 -0.35712 -0.529879
1.20138 -0.392864 -0.542765
1.24123 -0.421915 -0.544744
1.2637 -0.445238 -0.543407
1.2791 -0.478475 -0.543364
1.2885 -0.510241 -0.544178
1.29194 -0.527053 -0.544676
0.64886 -0.192712 0
0.685498 -0.214264 -0.410105
0.689148 -0.244286 -0.582634
0.64868 -0.26908 -0.659366
0.5862 -0.287484 -0.693466
0.516538 -0.300588 -0.707098
0.447958 -0.309676 -0.710433
0.385642 -0.315781 -0.708675
0.292605 -0.326545 -0.708514
0.234414 -0.333113 -0.708112
0.449935 -0.145169 0
0.421777 -0.158233 -0.441515
0.327424 -0.178577 -0.641097
0.195635 -0.197579 -0.737674
0.0552727 -0.213621 -0.784063
-0.0789063 -0.226757 -0.804075
-0.200128 -0.237371 -0.809711
-0.304409 -0.245772 -0.807705
-0.386807 -0.252013 -0.802491
-0.46217 -0.258425 -0.799787
0.20429 -0.0894102 0
0.137716 -0.0935942 -0.457928
-0.00397986 -0.104691 -0.68424
-0.172872 -0.119575 -0.812011
-0.341941 -0.135673 -0.890115
-0.498872 -0.151528 -0.940455
-0.63842 -0.166313 -0.973969
-0.757371 -0.179408 -0.996486
-0.850848 -0.190008 -1.01107
-0.903195 -0.196062 -1.01821
-0.0640997 -0.0229067 0
-0.150866 -0.0109077 -0.447795
-0.305584 0.00216161 -0.685432
-0.473897 0.00975264 -0.836837
-0.635861 0.0130475 -0.944695
-0.783474 0.0135819 -1.02695
-0.91357 0.0124899 -1.09194
-1.02397 0.010579 -1.14343
-1.11055 0.0085132 -1.18211
-1.15899 0.00715485 -1.20324
-0.334099 0.0506118 0
-0.435936 0.0853947 -0.387416
-0.592417 0.137224 -0.58388
-0.744854 0.18601 -0.703437
-0.882354 0.228836 -0.786208
-1.00285 0.265621 -0.84863
-1.10641 0.296774 -0.897962
-1.19281 0.322491 -0.937297
-1.2598 0.342276 -0.967091
-1.29702 0.353218 -0.983477
-0.579078 0.119007 0
-0.6981 0.171063 -0.271087
-0.862059 0.252592 -0.361661
-1.00477 0.333198 -0.377093
-1.12277 0.406695 -0.361229
-1.2197 0.471678 -0.33328
-1.29906 0.52795 -0.302117
-1.3629 0.575208 -0.272379
-1.41107 0.61204 -0.247479
-1.43738 0.632581 -0.233056
-0.764418 0.170082 0
-0.898082 0.22098 -0.133084
-1.07449 0.29779 -0.0982861
-1.2201 0.370898 0.00882902
-1.33482 0.435635 0.14025
-1.4253 0.491651 0.273783
-1.49695 0.53939 0.39884
-1.55306 0.579011 0.509076
-1.59452 0.609626 0.597686
-1.61686 0.626608 0.647991
-0.551831 0.071814 0
-0.695146 0.116715 -0.328812
-0.904401 0.188905 -0.457399
-1.09688 0.261701 -0.501453
-1.2625 0.328816 -0.507605
-1.40243 0.388521 -0.496634
-1.51934 0.440401 -0.478521
-1.61481 0.484058 -0.458643
-1.68763 0.518122 -0.440766
-1.72768 0.53713 -0.430014
-0.74745 0.141947 0
-0.918168 0.184895 -0.208797
-1.16969 0.247866 -0.231468
-1.40434 0.305801 -0.175172
-1.60931 0.355592 -0.0890869
-1.78493 0.397626 0.00449916
-1.9335 0.432745 0.0949615
-2.0561 0.461433 0.176134
-2.15042 0.483332 0.242094
-2.20259 0.495383 0.27977
-0.841897 0.202668 0
-1.01191 0.23593 -0.113319
-1.26164 0.276912 -0.0747364
-1.49414 0.307116 0.0248389
-1.69709 0.327885 0.142242
-1.871 0.342015 0.258889
-2.0182 0.351613 0.366517
-2.13975 0.358057 0.460401
-2.23333 0.362175 0.535312
-2.28512 0.364155 0.577646
-0.827781 0.259089 0
-0.963116 0.28667 -0.0449062
-1.15577 0.315489 0.0163916
-1.32908 0.331413 0.114856
-1.47608 0.338086 0.218746
-1.59922 0.339253 0.316057
-1.70159 0.33739 0.402406
-1.78494 0.334095 0.475641
-1.84844 0.330572 0.532897
-1.88334 0.328278 0.564839
-0.733239 0.313961 0
-0.814858 0.34663 0.0210523
-0.924221 0.383684 0.101795
-1.01574 0.408975 0.198411
-1.08814 0.42552 0.290508
-1.14502 0.436483 0.37176
-1.18969 0.44387 0.440853
-1.2243 0.448863 0.497582
-1.24962 0.452109 0.540853
-1.26315 0.453701 0.564605
-0.603238 0.360001 0
-0.639205 0.404963 0.110278
-0.690779 0.460571 0.233939
-0.739068 0.503927 0.356562
-0.781503 0.537023 0.467371
-0.817813 0.562808 0.563467
-0.848306 0.583222 0.64484
-0.873211 0.599308 0.711716
-0.892169 0.6113 0.762875
-0.902566 0.61781 0.791033
-0.469943 0.380424 0
-0.482263 0.435036 0.225841
-0.519681 0.501186 0.406307
-0.578095 0.549912 0.562079
-0.647142 0.58422 0.695167
-0.718517 0.608644 0.807871
-0.786866 0.626316 0.902393
-0.84829 0.639124 0.979847
-0.898411 0.648011 1.0391
-0.927144 0.652595 1.07175
-0.336719 0.356984 0
-0.331846 0.411772 0.351664
-0.355883 0.474283 0.579909
-0.416068 0.51479 0.744721
-0.498194 0.538081 0.867734
-0.589146 0.550364 0.961693
-0.679874 0.555944 1.03443
-0.763631 0.557595 1.09042
-0.833236 0.557212 1.13126
-0.873583 0.556424 1.15309
-0.187513 0.28069 0
-0.146225 0.323784 0.467182
-0.105629 0.370272 0.727521
-0.0952991 0.397184 0.87922
-0.109433 0.409633 0.966516
-0.138426 0.413339 1.01528
-0.174631 0.41214 1.04082
-0.212219 0.408504 1.05242
-0.245699 0.404231 1.05607
-0.26587 0.401354 1.05626
-0.0112976 0.15938 0
0.0955181 0.178479 0.547942
0.263666 0.195486 0.8229
0.425502 0.202344 0.954592
0.567262 0.203378 1.00602
0.687595 0.201703 1.01341
0.788009 0.198972 0.997638
0.869687 0.196054 0.971417
0.937611 0.192335 0.940543
1.00366 0.18449 0.90427
0.180128 0.0165311 0
0.366235 0.00479125 0.567466
0.681615 -0.0178504 0.82722
1.01349 -0.0407783 0.931867
1.32833 -0.0599251 0.955931
1.61398 -0.074713 0.939609
1.86571 -0.0856828 0.904645
2.14693 -0.0984532 0.84131
2.47015 -0.115052 0.751812
2.64562 -0.123597 0.701647
0.352866 -0.119761 0
0.601256 -0.155347 0.519378
1.01454 -0.208587 0.725849
1.44242 -0.256942 0.782378
1.84392 -0.297122 0.768599
2.20557 -0.329715 0.72445
2.52275 -0.355896 0.669853
3.03813 -0.396309 0.536942
3.43246 -0.426322 0.432044
3.64659 -0.442275 0.374273
0.465811 -0.229237 0
0.738757 -0.271583 0.434246
1.17541 -0.326899 0.575866
1.60871 -0.372625 0.576928
2.00139 -0.409505 0.514726
2.34569 -0.43975 0.428127
2.68529 -0.468345 0.316231
3.1615 -0.507354 0.124029
3.5149 -0.53621 -0.0223495
3.7061 -0.551812 -0.102805
0.488782 -0.30308 0
0.748237 -0.340068 0.353264
1.15808 -0.375407 0.466168
1.56031 -0.392222 0.456924
1.922 -0.397789 0.388425
2.2374 -0.397798 0.294825
2.54041 -0.394566 0.17615
2.97267 -0.386326 -0.0357437
3.2932 -0.379742 -0.198296
3.46654 -0.376041 -0.288152
0.413287 -0.338552 0
0.628138 -0.371281 0.290399
0.978191 -0.391126 0.42806
1.33602 -0.383374 0.483616
1.66992 -0.359755 0.492036
1.97005 -0.329347 0.474416
2.23318 -0.297516 0.443668
2.65904 -0.235649 0.351687
2.98933 -0.186212 0.275411
3.16871 -0.158919 0.232458
0.250928 -0.33127 0
0.395226 -0.368538 0.225872
0.644934 -0.397925 0.400292
0.916687 -0.400035 0.54791
1.18257 -0.384408 0.671549
1.42984 -0.359756 0.773985
1.65198 -0.331742 0.857999
1.92605 -0.289986 0.945498
2.22783 -0.240526 1.03257
2.3921 -0.213044 1.07919
0.0244388 -0.271682 0
0.0810147 -0.314459 0.137098
0.191328 -0.366073 0.295238
0.322108 -0.402103 0.468298
0.456187 -0.424685 0.639216
0.584132 -0.438032 0.798293
0.700789 -0.445371 0.940677
0.802335 -0.448906 1.06288
0.912969 -0.449661 1.18954
1.00845 -0.448985 1.29434
-0.239839 -0.151765 0
-0.27328 -0.184041 0.0408874
-0.310644 -0.233878 0.125104
-0.334431 -0.282083 0.235427
-0.348505 -0.325012 0.353388
-0.356903 -0.362141 0.468159
-0.362069 -0.393681 0.573837
-0.365339 -0.419744 0.666313
-0.367393 -0.439798 0.74041
-0.368393 -0.450885 0.782423
-0.514814 0.0201541 0
-0.627898 0.0214438 -0.00631683
-0.789719 0.0159795 0.0141381
-0.936114 0.00341845 0.048992
-1.06158 -0.0127404 0.0891076
-1.16816 -0.0299268 0.129387
-1.25811 -0.0465821 0.167088
-1.33242 -0.0616353 0.200393
-1.38974 -0.073954 0.227233
-1.42152 -0.0810257 0.2425
-0.773103 0.210676 0
-0.950065 0.255915 0.0477355
-1.20384 0.317384 0.087045
-1.43126 0.368802 0.119998
-1.62264 0.409265 0.146982
-1.78178 0.440931 0.168921
-1.91332 0.465757 0.186672
-2.01998 0.485005 0.200783
-2.10099 0.499106 0.211317
-2.14544 0.506655 0.217027
-0.98719 0.372271 0
-1.21118 0.446626 0.201844
-1.53105 0.552634 0.352441
-1.81434 0.647319 0.474593
-2.04885 0.726804 0.574353
-2.24043 0.792719 0.656171
-2.39614 0.847049 0.723222
-2.52051 0.890978 0.777245
-2.61378 0.924258 0.818076
-2.66451 0.942483 0.840403
-1.13062 0.47064 0
-1.38055 0.544025 0.392039
-1.74054 0.644133 0.678942
-2.06226 0.72981 0.912375
-2.33038 0.799488 1.10527
-2.55044 0.85596 1.26558
-2.72983 0.901731 1.39856
-2.8734 0.938283 1.50684
-2.98121 0.965729 1.58938
-3.03988 0.980675 1.63477
-1.18408 0.505208 0
-1.43106 0.559184 0.549655
-1.78964 0.623686 0.924453
-2.11435 0.67024 1.21415
-2.38874 0.702203 1.44585
-2.6168 0.724302 1.63433
-2.80477 0.739783 1.78845
-2.95657 0.750632 1.91266
-3.0714 0.757918 2.00669
-3.13421 0.761583 2.05818
-1.14643 0.501186 0
-1.3583 0.542217 0.665053
-1.66049 0.585202 1.07552
-1.93084 0.609457 1.36367
-2.15817 0.620471 1.57687
-2.34691 0.623685 1.74002
-2.50261 0.622596 1.86719
-2.62855 0.6194 1.96596
-2.724 0.61567 2.03865
-2.77627 0.613167 2.07775
-1.03909 0.481595 0
-1.19203 0.529568 0.781765
-1.39153 0.588063 1.23255
-1.55283 0.631126 1.523
-1.67714 0.661068 1.71973
-1.77326 0.681881 1.858
-1.84813 0.696453 1.95761
-1.906 0.706611 2.02969
-1.94835 0.713377 2.07966
-1.97101 0.716753 2.10543
-0.894895 0.447804 0
-0.984307 0.514079 0.942297
-1.07236 0.608609 1.49595
-1.1121 0.692875 1.85847
-1.118 0.763341 2.10678
-1.10468 0.821511 2.28259
-1.08183 0.869236 2.40981
-1.05581 0.907662 2.5021
-1.03177 0.936668 2.56617
-1.01706 0.952513 2.59922
-0.741609 0.383274 0
-0.778064 0.456868 1.13872
-0.783681 0.566532 1.8512
-0.741821 0.667778 2.34998
-0.672682 0.754363 2.71366
-0.592259 0.826905 2.98638
-0.510623 0.887035 3.19436
-0.434728 0.935805 3.3525
-0.371477 0.972813 3.46676
-0.334775 0.993096 3.52739
-0.597198 0.271652 0
-0.588594 0.327028 1.31716
-0.536197 0.408487 2.17651
-0.45124 0.481107 2.79815
-0.353486 0.540588 3.26213
-0.254969 0.588335 3.61624
-0.162368 0.626396 3.89003
-0.0802346 0.656234 4.10048
-0.0138173 0.678252 4.25381
0.0240516 0.69009 4.33563
-0.477347 0.113177 0
-0.425576 0.126652 1.42007
-0.316882 0.147186 2.36015
-0.1921 0.164399 3.03941
-0.0716892 0.176721 3.54109
0.036744 0.184936 3.91852
0.130873 0.190135 4.20587
0.209608 0.193223 4.4235
0.270606 0.19487 4.57998
0.30445 0.195515 4.66269
-0.399001 -0.0689138 0
-0.319265 -0.109448 1.40304
-0.173158 -0.161522 2.34058
-0.0215445 -0.202288 3.01793
0.11387 -0.232413 3.51511
0.228212 -0.254666 3.88578
0.322153 -0.271224 4.16514
0.397133 -0.283477 4.37455
0.453038 -0.292109 4.52372
0.483248 -0.296603 4.60202
-0.370805 -0.234988 0
-0.301082 -0.321771 1.25084
-0.180686 -0.433075 2.10685
-0.0632147 -0.517008 2.74687
0.0357258 -0.574726 3.23464
0.114675 -0.613302 3.61215
0.176107 -0.638653 3.90694
0.222696 -0.654881 4.13519
0.255884 -0.664644 4.30237
0.273228 -0.669072 4.39188
-0.381873 -0.349201 0
-0.357862 -0.456862 1.0048
-0.324118 -0.594753 1.7262
-0.301483 -0.698736 2.30603
-0.291773 -0.770357 2.78225
-0.291721 -0.818377 3.17691
-0.297739 -0.850076 3.50399
-0.306833 -0.870492 3.77028
-0.316312 -0.882869 3.97332
-0.322461 -0.888526 4.08502
-0.404567 -0.399526 0
-0.432685 -0.504803 0.737973
-0.490624 -0.64278 1.30646
-0.562779 -0.752235 1.80379
-0.638859 -0.833414 2.24283
-0.712533 -0.893201 2.62777
-0.780208 -0.93737 2.96087
-0.839323 -0.96975 3.2411
-0.886618 -0.992327 3.46003
-0.913403 -1.00399 3.58235
-0.40913 -0.398179 0
-0.472549 -0.491327 0.495848
-0.585431 -0.620473 0.908334
-0.70852 -0.732741 1.29529
-0.82703 -0.825183 1.65372
-0.934863 -0.900851 1.97824
-1.02963 -0.962676 2.2653
-1.10978 -1.01237 2.51053
-1.17242 -1.04988 2.70417
-1.20739 -1.07037 2.81307
-0.375036 -0.366027 0
-0.453206 -0.443609 0.288106
-0.581411 -0.558269 0.540472
-0.711325 -0.666573 0.785004
-0.830231 -0.762761 1.01512
-0.934718 -0.84656 1.22506
-1.0243 -0.918516 1.41145
-1.09872 -0.978651 1.57098
-1.15615 -1.02539 1.69704
-1.18794 -1.05141 1.76795
-0.291076 -0.320724 0
-0.370005 -0.377736 0.122047
-0.491952 -0.463712 0.228569
-0.608374 -0.546994 0.327927
-0.710322 -0.622487 0.417541
-0.797128 -0.689241 0.496296
-0.869885 -0.747171 0.564076
-0.92935 -0.795951 0.620644
-0.974709 -0.834062 0.66448
-0.999643 -0.855353 0.688824
-0.15057 -0.275582 0
-0.219542 -0.30772 0.0141623
-0.325843 -0.350856 0.0314469
-0.426407 -0.387778 0.0444645
-0.513601 -0.418082 0.0518146
-0.587228 -0.4429 0.054591
-0.64854 -0.4632 0.0542395
-0.698406 -0.479529 0.0520446
-0.736309 -0.491856 0.0491781
-0.757099 -0.498592 0.0471535
0.0473291 -0.241626 0
0.00543562 -0.25248 -0.0300039
-0.0656838 -0.25581 -0.0209327
-0.138385 -0.247409 0.000306953
-0.204752 -0.232526 0.0234699
-0.262797 -0.215014 0.0451436
-0.312345 -0.197196 0.0642288
-0.353365 -0.180624 0.080279
-0.38494 -0.166814 0.0927337
-0.402394 -0.158802 0.0996452
0.288603 -0.225936 0
0.298477 -0.228963 -0.0324293
0.300451 -0.217012 0.0276895
0.29122 -0.191439 0.12669
0.276236 -0.160132 0.236489
0.259292 -0.12796 0.344184
0.242539 -0.0975374 0.443552
0.227311 -0.0705281 0.530568
0.214852 -0.0487069 0.600322
0.199397 -0.0229267 0.678349
0.537802 -0.228015 0
0.617278 -0.240297 -0.0351972
0.725746 -0.246259 0.0788358
0.817827 -0.242436 0.256601
0.891492 -0.234358 0.450297
0.950015 -0.225299 0.637966
0.996508 -0.216749 0.809418
1.03517 -0.208263 0.972919
1.08022 -0.193363 1.21113
1.10422 -0.185392 1.34076
0.744424 -0.239974 0
0.881553 -0.272539 -0.0781659
1.08049 -0.318665 0.031321
1.26258 -0.362113 0.214408
1.41854 -0.402004 0.411509
1.5497 -0.438379 0.597866
1.65882 -0.471054 0.763814
1.80635 -0.520734 1.01978
1.9276 -0.562986 1.23509
1.99279 -0.586144 1.35153
0.861658 -0.250805 0
1.00709 -0.300791 -0.173992
1.21022 -0.381214 -0.152394
1.39131 -0.462991 -0.0624117
1.5445 -0.539153 0.0391213
1.67264 -0.607515 0.131863
1.77897 -0.667351 0.209931
1.9452 -0.770135 0.338479
2.06797 -0.847135 0.431797
2.1339 -0.888882 0.481105
0.865623 -0.251208 0
0.964052 -0.303665 -0.295206
1.07532 -0.387967 -0.400845
1.15197 -0.471277 -0.440205
1.203 -0.545655 -0.459149
1.23742 -0.60952 -0.47325
1.2609 -0.663151 -0.48703
1.28843 -0.738824 -0.509621
1.31186 -0.808157 -0.53217
1.32376 -0.845278 -0.545218
0.76179 -0.236763 0
0.791474 -0.278412 -0.400835
0.782476 -0.342625 -0.61
0.730237 -0.402871 -0.743404
0.658319 -0.454055 -0.83969
0.581228 -0.496073 -0.914185
0.506714 -0.529976 -0.9737
0.43964 -0.55669 -1.0212
0.336378 -0.599878 -1.09566
0.277025 -0.62401 -1.13756
0.575309 -0.207043 0
0.54911 -0.234051 -0.473227
0.454583 -0.27504 -0.746901
0.319375 -0.313469 -0.935128
0.172902 -0.346575 -1.0745
0.0307104 -0.374359 -1.18153
-0.0995585 -0.397352 -1.26506
-0.213007 -0.415943 -1.3298
-0.303564 -0.430001 -1.37728
-0.402848 -0.446438 -1.43386
0.33464 -0.161717 0
0.276114 -0.173524 -0.512803
0.146184 -0.192467 -0.824002
-0.0114638 -0.212093 -1.04948
-0.170758 -0.230947 -1.22436
-0.319646 -0.248431 -1.36422
-0.45282 -0.264195 -1.47728
-0.566908 -0.277877 -1.56761
-0.656934 -0.288815 -1.63552
-0.707491 -0.295018 -1.67253
0.0619463 -0.10006 0
-0.0156159 -0.0931742 -0.513487
-0.152959 -0.0825186 -0.828961
-0.299091 -0.0729346 -1.06403
-0.436352 -0.0653933 -1.25282
-0.558805 -0.0597819 -1.40913
-0.664813 -0.0557395 -1.5395
-0.753474 -0.0529242 -1.64651
-0.822215 -0.0510897 -1.72871
-0.860386 -0.0502009 -1.77419
-0.223292 -0.0252526 0
-0.324066 0.00294243 -0.461136
-0.477679 0.0496342 -0.724255
-0.623189 0.097665 -0.907567
-0.749917 0.142362 -1.04862
-0.857246 0.182276 -1.16258
-0.94671 0.216999 -1.25638
-1.01944 0.246216 -1.33284
-1.07464 0.269 -1.39138
-1.10488 0.281706 -1.42371
-0.493441 0.0535248 0
-0.628158 0.0967896 -0.357995
-0.824853 0.167223 -0.51521
-1.0054 0.239041 -0.588346
-1.16023 0.305767 -0.622398
-1.29054 0.36544 -0.637127
-1.39903 0.417488 -0.641956
-1.48732 0.461404 -0.641784
-1.55449 0.495737 -0.639515
-1.59136 0.514918 -0.637556
-0.708643 0.126052 0
-0.874712 0.170585 -0.236246
-1.11889 0.237789 -0.281029
-1.34607 0.301519 -0.244273
-1.54397 0.357638 -0.175317
-1.71314 0.405913 -0.0965746
-1.85595 0.446834 -0.0188053
-1.9736 0.480638 0.0517999
-2.06399 0.506659 0.109575
-2.11394 0.521055 0.142704
				 </DataArray>
			 </PointData>
			 <Points>
				 <DataArray type="Float64" NumberOfComponents="3" format="ascii">
   -882.6850    -882.6850     -76.4000
   -882.6850    -882.6850     -45.4183
   -882.6850    -882.6850     -30.0594
   -882.6850    -882.6850     -21.0505
   -882.6850    -882.6850     -15.1868
   -882.6850    -882.6850     -11.1021
   -882.6850    -882.6850      -8.1366
   -882.6850    -882.6850      -5.9559
   -882.6850    -882.6850      -4.4152
   -882.6850    -882.6850      -3.6083
   -882.6850    -846.6570     -76.4000
   -882.6850    -846.6570     -45.7309
   -882.6850    -846.6570     -30.5269
   -882.6850    -846.6570     -21.6089
   -882.6850    -846.6570     -15.8043
   -882.6850    -846.6570     -11.7608
   -882.6850    -846.6570      -8.8253
   -882.6850    -846.6570      -6.6665
   -882.6850    -846.6570      -5.1414
   -882.6850    -846.6570      -4.3427
   -882.6850    -810.6291     -76.4000
   -882.6850    -810.6291     -45.8334
   -882.6850    -810.6291     -30.6801
   -882.6850    -810.6291     -21.7920
   -882.6850    -810.6291     -16.0068
   -882.6850    -810.6291     -11.9768
   -882.6850    -810.6291      -9.0511
   -882.6850    -810.6291      -6.8995
   -882.6850    -810.6291      -5.3795
   -882.6850    -810.6291      -4.5834
   -882.6850    -774.6011     -76.4000
   -882.6850    -774.6011     -45.5944
   -882.6850    -774.6011     -30.3227
   -882.6850    -774.6011     -21.3650
   -882.6850    -774.6011     -15.5346
   -882.6850    -774.6011     -11.4731
   -882.6850    -774.6011      -8.5245
   -882.6850    -774.6011      -6.3561
   -882.6850    -774.6011      -4.8242
   -882.6850    -774.6011      -4.0219
   -882.6850    -738.5732     -76.4000
   -882.6850    -738.5732     -45.1002
   -882.6850    -738.5732     -29.5835
   -882.6850    -738.5732     -20.4822
   -882.6850    -738.5732     -14.5582
   -882.6850    -738.5732     -10.4316
   -882.6850    -738.5732      -7.4357
   -882.6850    -738.5732      -5.2325
   -882.6850    -738.5732      -3.6760
   -882.6850    -738.5732      -2.8608
   -882.6850    -702.5452     -76.4000
   -882.6850    -702.5452     -44.6450
   -882.6850    -702.5452     -28.9026
   -882.6850    -702.5452     -19.6689
   -882.6850    -702.5452     -13.6588
   -882.6850    -702.5452      -9.4721
   -882.6850    -702.5452      -6.4327
   -882.6850    -702.5452      -4.1974
   -882.6850    -702.5452      -2.6183
   -882.6850    -702.5452      -1.7913
   -882.6850    -666.5172     -76.4000
   -882.6850    -666.5172     -44.4674
   -882.6850    -666.5172     -28.6370
   -882.6850    -666.5172     -19.3516
   -882.6850    -666.5172     -13.3079
   -882.6850    -666.5172      -9.0978