<?xml version="1.0"?>
<VTKFile type="UnstructuredGrid" version="1.0" byte_order="LittleEndian" header_type="UInt64">
	 <UnstructuredGrid>
		 <FieldData> 
			 <DataArray type = "Float64" Name = "TimeValue" NumberOfTuples = "1" format = "ascii" RangeMin = "10.000" RangeMax = "10.000"> 
			 10.000 
			 </DataArray > 
		 </FieldData> 
		 <Piece NumberOfPoints="1000" NumberOfCells="441">
			 <PointData Scalars="scalars">
				 <DataArray type="Float64" NumberOfComponents="3" Name="Velocity" format="ascii">
-0.763522 0.371953 0
-0.794026 0.429612 0.213819
-0.798011 0.495488 0.329566
-0.765746 0.537947 0.396326
-0.715375 0.561816 0.43593
-0.659165 0.573677 0.460031
-0.603908 0.578212 0.474944
-0.553802 0.578521 0.484169
-0.512823 0.576808 0.489651
-0.489332 0.575173 0.492146
-0.702896 0.276839 0
-0.701955 0.31202 0.323462
-0.647725 0.353276 0.475694
-0.549878 0.381728 0.538727
-0.434576 0.399808 0.553094
-0.317796 0.41097 0.541797
-0.208141 0.417667 0.517993
-0.111165 0.421488 0.489769
-0.0329964 0.423461 0.463301
0.0114633 0.424213 0.447013
-0.61918 0.156197 0
-0.597092 0.156971 0.366558
-0.508468 0.156096 0.5345
-0.376034 0.155563 0.602961
-0.229063 0.156467 0.61857
-0.0842796 0.158627 0.606708
0.0496077 0.161555 0.581575
0.166918 0.164755 0.551789
0.260926 0.167699 0.523875
0.314216 0.169506 0.506707
-0.520709 0.0437393 0
-0.499665 0.0132641 0.327457
-0.423424 -0.0303659 0.46848
-0.314343 -0.0665425 0.526941
-0.196609 -0.0933143 0.54617
-0.0829239 -0.112399 0.546441
0.020638 -0.125763 0.537812
0.110347 -0.134916 0.52575
0.181628 -0.140837 0.513888
0.221814 -0.143703 0.506469
-0.398715 -0.0351785 0
-0.38586 -0.0780629 0.23369
-0.33302 -0.140987 0.305254
-0.25708 -0.197014 0.316406
-0.176404 -0.242894 0.30639
-0.0999455 -0.279723 0.290101
-0.0315013 -0.30908 0.273272
0.0268973 -0.332089 0.258253
0.0727345 -0.349063 0.246358
0.098363 -0.358187 0.239729
-0.237373 -0.0794787 0
-0.21621 -0.113277 0.137995
-0.149173 -0.162701 0.13039
-0.0558923 -0.207898 0.0744252
0.0437596 -0.246584 0.00873211
0.139327 -0.279193 -0.053402
0.225893 -0.306439 -0.107757
0.300517 -0.328718 -0.15291
0.359577 -0.345746 -0.187491
0.392783 -0.355125 -0.206486
-0.0328276 -0.110288 0
0.0215024 -0.124267 0.0829295
0.150221 -0.138807 0.0323986
0.318451 -0.147388 -0.0618307
0.498352 -0.152124 -0.162218
0.673524 -0.15476 -0.255595
0.834948 -0.15627 -0.337617
0.976302 -0.157158 -0.406485
1.09975 -0.15781 -0.46571
1.22442 -0.158837 -0.530213
0.194937 -0.15259 0
0.291699 -0.154732 0.0745521
0.485306 -0.143126 0.0441368
0.721161 -0.119003 -0.0170213
0.968177 -0.0895171 -0.0810262
1.20769 -0.0591935 -0.139271
1.42869 -0.0305011 -0.189453
1.63039 -0.0039545 -0.232965
1.93791 0.0379531 -0.305621
2.10596 0.0608412 -0.344499
0.407107 -0.214322 0
0.526141 -0.226016 0.0743539
0.721682 -0.22548 0.0964875
0.928045 -0.208447 0.115807
1.12752 -0.182709 0.141709
1.31222 -0.153884 0.172619
1.47793 -0.125289 0.205382
1.67417 -0.0875666 0.248473
1.8973 -0.0422539 0.299159
2.0188 -0.0173871 0.327501
0.564036 -0.278838 0
0.671168 -0.314077 0.031726
0.797783 -0.352421 0.0688779
0.884428 -0.375878 0.131267
0.938147 -0.388539 0.211004
0.969862 -0.394654 0.297629
0.987477 -0.396961 0.383371
0.996441 -0.396606 0.479836
1.00076 -0.393632 0.615676
1.00194 -0.391726 0.690436
0.643698 -0.316136 0
0.718281 -0.369327 -0.0656239
0.759473 -0.439008 -0.0767214
0.72789 -0.496471 -0.0432422
0.650538 -0.542195 0.0159995
0.551267 -0.578888 0.0863554
0.445765 -0.608555 0.158469
0.345026 -0.632285 0.225869
0.187375 -0.66506 0.329797
0.085841 -0.685442 0.396454
0.648369 -0.302213 0
0.691486 -0.356192 -0.188281
0.677119 -0.42964 -0.279852
0.587319 -0.49255 -0.310997
0.456225 -0.543958 -0.307597
0.309747 -0.585919 -0.286543
0.163906 -0.620199 -0.257812
0.0297859 -0.64779 -0.227591
-0.12669 -0.6769 -0.190036
-0.259124 -0.700708 -0.15785
0.596071 -0.231411 0
0.621213 -0.269794 -0.295083
0.591697 -0.322767 -0.45908
0.502594 -0.368044 -0.546413
0.38467 -0.404313 -0.588158
0.25882 -0.433047 -0.60396
0.137028 -0.455748 -0.605448
0.0271942 -0.473424 -0.599641
-0.0829675 -0.488975 -0.589306
-0.189585 -0.502875 -0.577919
0.50605 -0.115783 0
0.525254 -0.129109 -0.355888
0.502443 -0.151189 -0.56626
0.435727 -0.173249 -0.68991
0.349183 -0.192738 -0.758517
0.258303 -0.209113 -0.793393
0.171512 -0.222506 -0.807987
0.0940832 -0.233141 -0.810831
0.0232902 -0.241865 -0.807028
-0.0516887 -0.250171 -0.799666
0.391526 0.0230811 0
0.408499 0.0384839 -0.356504
0.391386 0.0500238 -0.590079
0.336046 0.0496737 -0.747878
0.26194 0.0419101 -0.852442
0.182523 0.0306455 -0.920821
0.105557 0.018308 -0.964815
0.036133 0.00645216 -0.992241
-0.020548 -0.00358334 -1.00818
-0.0818265 -0.0143227 -1.01995
0.263481 0.161911 0
0.277795 0.20743 -0.290656
0.26307 0.258716 -0.518897
0.212911 0.289206 -0.708328
0.143378 0.303031 -0.863023
0.0669224 0.306285 -0.988373
-0.0086365 0.303431 -1.08933
-0.0778198 0.297533 -1.16917
-0.134942 0.290966 -1.22846
-0.175182 0.285718 -1.26679
0.138752 0.280565 0
0.152628 0.354821 -0.154046
0.149025 0.452708 -0.320824
0.120277 0.529936 -0.497121
0.0768265 0.586188 -0.668093
0.0274157 0.626486 -0.82556
-0.022287 0.655235 -0.965588
-0.0682821 0.675493 -1.08526
-0.106514 0.689057 -1.17961
-0.128667 0.695833 -1.23257
0.0435878 0.364581 0
0.0642353 0.458407 0.0464573
0.0866968 0.594166 0.018671
0.099823 0.716107 -0.0574285
0.106351 0.818094 -0.157495
0.109162 0.901964 -0.265232
0.110028 0.970397 -0.370624
0.10995 1.02517 -0.466592
0.109511 1.0663 -0.545583
0.109155 1.08867 -0.5911
0.00810559 0.406856 0
0.0487253 0.502052 0.277748
0.112304 0.643555 0.44042
0.175977 0.775884 0.533246
0.23579 0.891218 0.580284
0.290648 0.989675 0.598742
0.3399 1.07264 0.600121
0.382616 1.14087 0.592174
0.416797 1.19321 0.580801
0.436203 1.22211 0.57263
0.0530911 0.408155 0
0.134587 0.487866 0.491626
0.263043 0.601302 0.829392
0.388663 0.7032 1.08094
0.501832 0.789622 1.27037
0.601142 0.86211 1.41452
0.686843 0.922505 1.52493
0.758756 0.971804 1.60874
0.814836 1.00945 1.66901
0.856457 1.03776 1.71292
0.17675 0.373967 0
0.322837 0.432593 0.661442
0.552511 0.508484 1.11736
0.772608 0.568922 1.46212
0.964546 0.614661 1.72753
1.12698 0.649386 1.93454
1.26234 0.675975 2.09711
1.37241 0.696215 2.22349
1.49233 0.715796 2.35639
1.58109 0.72942 2.45359
0.353251 0.310585 0
0.572675 0.348532 0.786092
0.922741 0.394635 1.3126
1.2636 0.427913 1.69757
1.56401 0.450242 1.98432
1.81967 0.465013 2.20118
2.03316 0.474726 2.36676
2.26882 0.480456 2.53164
2.52565 0.483193 2.70124
2.66332 0.484394 2.79048
0.548079 0.22648 0
0.817003 0.240404 0.859425
1.2438 0.258073 1.42837
1.66302 0.272906 1.83901
2.03806 0.285386 2.14076
2.36223 0.296077 2.36583
2.63682 0.30526 2.53531
3.06768 0.319174 2.75554
3.39667 0.329934 2.91666
3.57376 0.335793 3.00105
0.737713 0.135233 0
1.01543 0.119043 0.862808
1.43088 0.097217 1.43857
1.82132 0.0815668 1.865
2.16251 0.0728176 2.18981
2.45409 0.0693372 2.44187
2.71901 0.0705752 2.65214
3.11782 0.0850493 2.93641
3.41173 0.0966583 3.14157
3.56999 0.103285 3.25046
0.915129 0.0529429 0
1.18836 0.00491037 0.789405
1.55635 -0.064706 1.31487
1.86315 -0.125275 1.71389
2.10499 -0.173166 2.03062
2.29497 -0.209946 2.28805
2.4489 -0.238132 2.50546
2.68196 -0.266892 2.84709
2.84995 -0.28712 3.09766
2.93904 -0.297621 3.23226
1.07811 -0.0069361 0
1.37478 -0.0828361 0.652049
1.74878 -0.196788 1.0673
2.02822 -0.301697 1.37947
2.22023 -0.390399 1.63178
2.34906 -0.463578 1.84312
2.44292 -0.530574 2.04914
2.55082 -0.623085 2.36388
2.6216 -0.690431 2.59717
2.65647 -0.726372 2.72346
1.21457 -0.0358524 0
1.57482 -0.130219 0.467867
2.04106 -0.274229 0.724432
2.39881 -0.409058 0.900571
2.64951 -0.524896 1.04159
2.81996 -0.62196 1.16378
2.97848 -0.747755 1.33888
3.12105 -0.882643 1.53597
3.21439 -0.98123 1.68492
3.26023 -1.03401 1.76672
1.29981 -0.0315739 0
1.73667 -0.125778 0.261432
2.3367 -0.270954 0.332505
2.8386 -0.407475 0.346805
3.22816 -0.524855 0.353926
3.52588 -0.623167 0.367645
3.95253 -0.789779 0.411073
4.2796 -0.9225 0.454607
4.51121 -1.01958 0.492937
4.63234 -1.07158 0.51613
1.30711 -0.00201282 0
1.78467 -0.0701695 0.0802571
2.46629 -0.175981 -0.0149274
3.07182 -0.276703 -0.147626
3.57678 -0.364536 -0.263795
4.06123 -0.45194 -0.366208
4.73498 -0.576927 -0.499222
5.25477 -0.674012 -0.59167
5.63575 -0.745543 -0.652157
5.84016 -0.784054 -0.68165
1.22249 0.0333392 0
1.67647 0.00738177 -0.0226154
2.33023 -0.0345075 -0.21315
2.92297 -0.0788684 -0.439752
3.43151 -0.122735 -0.646382
3.90657 -0.168975 -0.836495
4.63324 -0.245279 -1.12375
5.20198 -0.307163 -1.34091
5.62433 -0.354472 -1.49653
5.8531 -0.380606 -1.57851
1.05382 0.0507112 0
1.43787 0.0609474 -0.0341714
1.99075 0.072201 -0.241697
2.49214 0.0727576 -0.508109
2.9225 0.0623133 -0.775979
3.28896 0.0441408 -1.02357
3.8295 0.00227081 -1.42268
4.31208 -0.0401838 -1.78504
4.67054 -0.0746928 -2.05571
4.86474 -0.0945202 -2.20275
0.829628 0.0334275 0
1.13283 0.0614046 0.0143125
1.57708 0.0990397 -0.162523
1.98468 0.123537 -0.433453
2.33465 0.133311 -0.737385
2.63056 0.132054 -1.04163
2.94906 0.120192 -1.42953
3.32685 0.0994662 -1.93588
3.60599 0.0810468 -2.32053
3.75661 0.069922 -2.532
0.587999 -0.0221828 0
0.818353 0.00709285 0.0830505
1.17072 0.0513241 -0.0386506
1.5059 0.088904 -0.279662
1.79917 0.116618 -0.576462
2.04884 0.135931 -0.889029
2.25814 0.148945 -1.19246
2.54785 0.16832 -1.70935
2.78031 0.182817 -2.14356
2.90548 0.19005 -2.38302
0.362984 -0.108569 0
0.529829 -0.0873358 0.145881
0.797208 -0.0460336 0.0993007
1.06225 0.000642514 -0.0640692
1.30072 0.0464422 -0.286629
1.50755 0.0888301 -0.530608
1.68316 0.12671 -0.772266
1.8657 0.171694 -1.06927
2.06731 0.227303 -1.43293
2.17604 0.257455 -1.63353
0.177209 -0.213569 0
0.28993 -0.206283 0.18803
0.474168 -0.1774 0.22965
0.660631 -0.132871 0.1846
0.831511 -0.0816636 0.0933642
0.982102 -0.0296027 -0.0180008
1.11169 0.019818 -0.133514
1.21979 0.0640444 -0.242224
1.35787 0.129351 -0.402562
1.44384 0.171265 -0.505929
0.0404769 -0.326219 0
0.115497 -0.342136 0.190971
0.235643 -0.345853 0.302491
0.355642 -0.330452 0.368024
0.465277 -0.304185 0.405129
0.562138 -0.273446 0.425194
0.645894 -0.242201 0.435149
0.716134 -0.213151 0.439197
0.779636 -0.184386 0.43994
0.838933 -0.155442 0.439311
-0.0504809 -0.435121 0
0.008802 -0.486821 0.123888
0.101429 -0.54937 0.236264
0.191534 -0.595161 0.337573
0.272292 -0.627055 0.425923
0.342722 -0.649449 0.501961
0.403096 -0.665402 0.566686
0.453428 -0.676782 0.620447
0.492455 -0.684561 0.662053
0.530486 -0.691116 0.704295
-0.110568 -0.521715 0
-0.0512357 -0.614437 -0.0415274
0.0435495 -0.746866 -0.0376944
0.136656 -0.866209 -0.0201565
0.219997 -0.967642 -0.000381503
0.29223 -1.05283 0.0180568
0.353667 -1.12387 0.0341279
0.404489 -1.18189 0.0474999
0.443628 -1.22621 0.0577819
0.480297 -1.26899 0.0690827
-0.159093 -0.559629 0
-0.0984766 -0.677996 -0.295946
0.00209608 -0.853309 -0.499336
0.103855 -1.01597 -0.667813
0.196587 -1.15645 -0.813398
0.277825 -1.27534 -0.939867
0.347369 -1.37479 -1.04879
0.405126 -1.45606 -1.14018
0.449711 -1.5181 -1.21145
0.492167 -1.57638 -1.27879
-0.209037 -0.525748 0
-0.153498 -0.63438 -0.570868
-0.0581148 -0.791055 -0.997064
0.0417643 -0.931341 -1.35906
0.135463 -1.04833 -1.66981
0.219544 -1.14427 -1.9355
0.292954 -1.22235 -2.16048
0.354902 -1.2847 -2.34637
0.403318 -1.33142 -2.48954
0.441443 -1.36572 -2.59692
-0.262774 -0.415532 0
-0.212212 -0.479338 -0.773102
-0.121586 -0.560219 -1.33512
-0.0229503 -0.621609 -1.79352
0.0725284 -0.664879 -2.17187
0.160416 -0.694958 -2.48461
0.238748 -0.715797 -2.7421
0.305945 -0.730055 -2.95003
0.359134 -0.73933 -3.10733
0.389089 -0.743856 -3.19335
-0.318672 -0.249029 0
-0.264913 -0.253333 -0.842599
-0.164826 -0.240663 -1.40518
-0.0540665 -0.211834 -1.82719
0.0536727 -0.17602 -2.15221
0.152948 -0.13902 -2.40608
0.241417 -0.103972 -2.60558
0.317277 -0.0728495 -2.76065
0.377299 -0.0477171 -2.87446
0.411092 -0.0334127 -2.93544
-0.379915 -0.0617722 0
-0.317601 -0.0165364 -0.777943
-0.19845 0.0651534 -1.23026
-0.0670889 0.152256 -1.52468
0.0585137 0.233422 -1.72509
0.172029 0.305037 -1.86573
0.271403 0.366345 -1.96636
0.355337 0.417101 -2.03842
0.420954 0.456118 -2.08778
0.457603 0.477657 -2.11296
-0.454741 0.111813 0
-0.391394 0.182693 -0.626109
-0.263516 0.290703 -0.925719
-0.120022 0.391548 -1.0773
0.0169142 0.477609 -1.15459
0.139572 0.549024 -1.19299
0.245791 0.607463 -1.21044
0.33456 0.654222 -1.21653
0.403321 0.689265 -1.21694
0.441477 0.708294 -1.21576
-0.547336 0.2508 0
-0.502479 0.326116 -0.446217
-0.396214 0.429147 -0.609904
-0.267322 0.517026 -0.652801
-0.139539 0.587934 -0.644338
-0.0226137 0.644855 -0.615407
0.0799623 0.690547 -0.580131
0.166396 0.726714 -0.54557
0.233703 0.753667 -0.516407
0.271165 0.768268 -0.499493
-0.648189 0.349303 0
-0.639942 0.420507 -0.274157
-0.587136 0.510135 -0.33807
-0.505094 0.581157 -0.311871
-0.414871 0.63608 -0.250401
-0.327432 0.679343 -0.178373
-0.24786 0.713918 -0.107195
-0.179105 0.741381 -0.0429616
-0.124621 0.761988 0.0092188
-0.0939691 0.773223 0.038968
-0.734048 0.407761 0
-0.763443 0.476092 -0.115612
-0.770422 0.557074 -0.108312
-0.746001 0.61615 -0.0440242
-0.706164 0.6582 0.0427066
-0.661421 0.68896 0.134646
-0.617444 0.712062 0.22295
-0.577639 0.729518 0.302104
-0.545151 0.742129 0.366461
-0.526556 0.748838 0.403251
-0.779604 0.423006 0
-0.827065 0.49002 0.036329
-0.863548 0.566558 0.0975063
-0.868621 0.617545 0.173074
-0.855504 0.648906 0.252922
-0.834123 0.66772 0.330873
-0.810149 0.678725 0.403213
-0.786974 0.684855 0.467054
-0.767341 0.687947 0.518593
-0.755876 0.689096 0.54797
-0.772591 0.38813 0
-0.809319 0.448934 0.181515
-0.824978 0.518109 0.287334
-0.805953 0.562489 0.356347
-0.768714 0.587345 0.404542
-0.724751 0.599663 0.440095
-0.680483 0.604365 0.467272
-0.639834 0.604687 0.488216
-0.606351 0.602922 0.50362
-0.587084 0.601237 0.511922
-0.720215 0.303168 0
-0.726827 0.34515 0.301903
-0.686351 0.394109 0.446444
-0.603828 0.427143 0.50922
-0.503606 0.447262 0.527322
-0.40085 0.458832 0.521698
-0.303768 0.464988 0.504271
-0.217617 0.467796 0.482299
-0.148032 0.468665 0.461208
-0.108411 0.468689 0.448096
-0.805886 0.379698 0
-0.846422 0.445999 0.198023
-0.863896 0.529249 0.339954
-0.843659 0.592544 0.4516
-0.803859 0.63787 0.541118
-0.756988 0.670262 0.613752
-0.709945 0.693558 0.672906
-0.666883 0.710227 0.720396
-0.631508 0.721605 0.756218
-0.611191 0.727389 0.775788
-0.771149 0.294954 0
-0.774998 0.338903 0.334716
-0.717186 0.395889 0.552116
-0.605314 0.441717 0.707591
-0.47028 0.476848 0.822125
-0.331739 0.503859 0.908421
-0.200588 0.524773 0.974348
-0.0839657 0.540841 1.02449
0.0103887 0.552535 1.06069
0.0641738 0.55877 1.07988
-0.700002 0.180841 0
-0.679945 0.18458 0.393471
-0.5833 0.185904 0.642294
-0.432555 0.184808 0.818882
-0.262122 0.18316 0.949512
-0.0924227 0.181691 1.04885
0.0655885 0.180584 1.1256
0.204686 0.179832 1.18463
0.31651 0.179377 1.22768
0.380021 0.179175 1.25069
-0.598935 0.0749106 0
-0.575429 0.0430038 0.352492
-0.489796 -0.00746425 0.558468
-0.367648 -0.0552193 0.698367
-0.236307 -0.0960474 0.800415
-0.109918 -0.129905 0.878164
0.00487688 -0.157596 0.938794
0.10407 -0.179752 0.986004
0.182731 -0.196363 1.02087
0.227018 -0.205389 1.03966
-0.463198 0.00587696 0
-0.439581 -0.0365622 0.253916
-0.369084 -0.100983 0.372673
-0.27746 -0.160414 0.43831
-0.185102 -0.210662 0.479695
-0.100632 -0.252168 0.508444
-0.0270193 -0.286101 0.529689
0.0344847 -0.31329 0.545769
0.0819852 -0.333715 0.557493
0.108261 -0.344833 0.56379
-0.284778 -0.0260402 0
-0.244215 -0.0533266 0.16697
-0.148362 -0.0913305 0.2155
-0.031085 -0.12304 0.225515
0.0857384 -0.147417 0.224127
0.192706 -0.165876 0.22007
0.286387 -0.179832 0.216101
0.365104 -0.190271 0.213
0.426217 -0.197675 0.210905
0.460151 -0.201546 0.209893
-0.0663394 -0.0471266 0
0.0105126 -0.0505158 0.136054
0.169431 -0.0481742 0.174628
0.35963 -0.0383503 0.191215
0.552606 -0.0242792 0.206702
0.734177 -0.00858207 0.224644
0.897542 0.00705695 0.244264
1.03814 0.0214479 0.263805
1.16795 0.0353871 0.282387
1.29306 0.0491051 0.297494
0.171062 -0.0882705 0
0.28472 -0.0825894 0.151194
0.49141 -0.0657682 0.22954
0.723974 -0.0426304 0.302775
0.955369 -0.017702 0.382154
1.17237 0.00653985 0.464643
1.36813 0.0288154 0.545346
1.5374 0.0482677 0.619427
1.80648 0.0814313 0.733939
1.95431 0.0996435 0.797905
0.392653 -0.160008 0
0.51998 -0.171569 0.154505
0.708051 -0.184987 0.254312
0.884083 -0.19596 0.355318
1.03888 -0.205614 0.462806
1.17269 -0.214457 0.571388
1.28696 -0.222545 0.675247
1.40153 -0.230485 0.789307
1.54859 -0.239243 0.942768
1.62798 -0.244128 1.02714
0.563382 -0.243312 0
0.676645 -0.285046 0.0942367
0.793838 -0.346738 0.144272
0.85154 -0.40642 0.190501
0.865224 -0.461262 0.238892
0.852829 -0.510646 0.287609
0.826799 -0.554272 0.33409
0.79351 -0.593264 0.378232
0.727182 -0.652947 0.453686
0.689606 -0.685375 0.494935
0.661968 -0.302268 0
0.747005 -0.364282 -0.0289517
0.79047 -0.453757 -0.0821748
0.748615 -0.536032 -0.138614
0.654484 -0.607647 -0.19146
0.536325 -0.6692 -0.239263
0.412293 -0.721587 -0.281659
0.294853 -0.765117 -0.318113
0.113799 -0.825075 -0.365764
-0.0050507 -0.863336 -0.396055
0.686926 -0.307218 0
0.745889 -0.367898 -0.172565
0.744611 -0.450547 -0.32999
0.658719 -0.520315 -0.47341
0.526883 -0.575873 -0.600977
0.378063 -0.619873 -0.713317
0.22971 -0.654744 -0.811101
0.0934852 -0.682032 -0.893941
-0.0794904 -0.712059 -0.991001
-0.213405 -0.734178 -1.064
0.650575 -0.250277 0
0.695211 -0.291409 -0.288639
0.682998 -0.344245 -0.514428
0.599619 -0.384728 -0.698472
0.480378 -0.413238 -0.848247
0.349898 -0.43282 -0.970893
0.222298 -0.446073 -1.07154
0.106679 -0.454833 -1.15289
-0.0269333 -0.461844 -1.23804
-0.1385 -0.466681 -1.3063
0.567446 -0.144475 0
0.609644 -0.157927 -0.349507
0.608346 -0.176552 -0.607616
0.547751 -0.192501 -0.805749
0.455936 -0.205091 -0.956887
0.353202 -0.214755 -1.07274
0.251468 -0.222062 -1.16195
0.158532 -0.227465 -1.22997
0.0562926 -0.232128 -1.29359
-0.0345914 -0.235696 -1.34598
0.447943 -0.0127505 0
0.493977 0.00325613 -0.347764
0.513868 0.0184526 -0.617927
0.483789 0.0229658 -0.837926
0.423048 0.019656 -1.01482
0.348232 0.0119397 -1.15659
0.27015 0.00223428 -1.26991
0.196359 -0.00777703 -1.35907
0.12126 -0.0182483 -1.43683
0.045786 -0.0284646 -1.50797
0.301257 0.122252 0
0.350496 0.168573 -0.279825
0.396195 0.224993 -0.533279
0.408304 0.263509 -0.77171
0.395195 0.286191 -0.987033
0.367287 0.298039 -1.17635
0.332343 0.303011 -1.3394
0.296095 0.303873 -1.47559
0.262427 0.302618 -1.58491
0.220601 0.300614 -1.70167
0.143418 0.243128 0
0.188664 0.318471 -0.139746
0.254049 0.423485 -0.311939
0.311608 0.513233 -0.507547
0.358169 0.584794 -0.705413
0.394995 0.641219 -0.892722
0.423861 0.685632 -1.06251
0.446096 0.720125 -1.20965
0.462233 0.745407 -1.32682
0.4739 0.769176 -1.44126
0.00284824 0.33828 0
0.0353713 0.433388 0.0651726
0.0997568 0.575101 0.0559043
0.177831 0.70734 -0.00011559
0.259824 0.82214 -0.0792213
0.339789 0.919764 -0.166103
0.41406 1.00177 -0.251655
0.479696 1.06903 -0.329702
0.532759 1.12053 -0.393945
0.567247 1.15377 -0.437631
-0.0837555 0.400646 0
-0.0611035 0.499073 0.300181
-0.0100504 0.645544 0.493329
0.0579497 0.782452 0.625739
0.133763 0.901662 0.717904
0.210728 1.00335 0.783304
0.284256 1.089 0.830437
0.350571 1.15941 0.864397
0.404969 1.21342 0.887794
0.436292 1.24323 0.899789
-0.0869279 0.426274 0
-0.0509479 0.514983 0.525375
0.0138857 0.641051 0.899043
0.0860395 0.752791 1.18999
0.157803 0.845643 1.42031
0.225558 0.921826 1.60483
0.28727 0.983986 1.7534
0.341162 1.03379 1.87151
0.384416 1.07125 1.95992
0.409 1.09165 2.00796
-0.00208851 0.412803 0
0.0796102 0.486017 0.724559
0.214281 0.58549 1.24037
0.349548 0.668862 1.64121
0.472178 0.734476 1.95674
0.579299 0.785689 2.20756
0.670897 0.825648 2.40779
0.746965 0.856443 2.56567
0.805716 0.878865 2.68298
0.846085 0.893425 2.76103
0.14743 0.360859 0
0.291087 0.412033 0.888273
0.529411 0.480075 1.51702
0.771682 0.536514 2.00153
0.99341 0.581002 2.37869
1.18821 0.615996 2.67472
1.35527 0.643583 2.90798
1.49416 0.665074 3.08964
1.66431 0.687256 3.29354
1.78125 0.70157 3.42953
0.327848 0.279478 0
0.515862 0.298673 0.986037
0.821601 0.320613 1.68115
1.13151 0.337163 2.21943
1.41713 0.350309 2.64201
1.67049 0.361398 2.97663
1.88983 0.370984 3.24246
2.12319 0.381385 3.49751
2.40683 0.394197 3.78396
2.56009 0.40119 3.93625
0.516405 0.187062 0
0.717042 0.171284 0.989953
1.01529 0.139927 1.67097
1.29509 0.105636 2.1952
1.54024 0.0740598 2.60964
1.75069 0.0468905 2.94201
1.92897 0.0242968 3.20989
2.14109 0.00297419 3.50425
2.36691 -0.0161008 3.80463
2.48853 -0.0263384 3.96508
0.70625 0.103098 0
0.916655 0.0604205 0.915816
1.19127 -0.0109395 1.5109
1.40936 -0.0839205 1.94912
1.57186 -0.150952 2.28635
1.69224 -0.209957 2.55274
1.78167 -0.260609 2.76577
1.87491 -0.317068 3.01055
1.96621 -0.373282 3.26222
2.01375 -0.403711 3.39649
0.89366 0.0397571 0
1.14825 -0.0203823 0.801791
1.46431 -0.113813 1.28192
1.69095 -0.20417 1.60504
1.83563 -0.284629 1.83432
1.92192 -0.354335 2.00334
1.96922 -0.41372 2.13097
1.99395 -0.500018 2.31122
2.00358 -0.574404 2.46297
2.00522 -0.614522 2.54291
1.06328 0.0014238 0
1.40517 -0.0707665 0.66782
1.8508 -0.177405 1.02965
2.19067 -0.273767 1.2443
2.42321 -0.35411 1.37687
2.57454 -0.419811 1.46111
2.6822 -0.492516 1.53504
2.77235 -0.585582 1.62099
2.8258 -0.653097 1.67858
2.84961 -0.689061 1.70755
1.18545 -0.0124275 0
1.6293 -0.0888917 0.517923
2.24349 -0.201097 0.758351
2.75281 -0.299276 0.878819
3.13848 -0.376985 0.942806
3.42275 -0.436645 0.978621
3.78306 -0.525366 1.02007
4.06402 -0.596775 1.05034
4.25789 -0.647088 1.07019
4.35722 -0.673297 1.08007
1.22714 -0.00824813 0
1.73589 -0.0724308 0.369185
2.46325 -0.168524 0.488659
3.09585 -0.254382 0.522706
3.60331 -0.323345 0.534908
4.0625 -0.384259 0.549191
4.67707 -0.462921 0.579952
5.13978 -0.521083 0.609851
5.47137 -0.561964 0.636491
5.64635 -0.583197 0.652766
1.16816 -5.07028e-05 0
1.67232 -0.0362164 0.2598
2.40397 -0.090737 0.287308
3.05778 -0.142788 0.246267
3.60142 -0.189133 0.201646
4.11932 -0.236619 0.168943
4.83933 -0.3065 0.141054
5.39281 -0.361224 0.130016
5.79721 -0.401818 0.129631
6.01371 -0.423772 0.132605
1.01328 -0.00452581 0
1.45809 -0.011696 0.214369
2.12105 -0.0207994 0.204494
2.73891 -0.0333298 0.115234
3.27693 -0.0509485 0.010271
3.73785 -0.0725102 -0.0872194
4.49597 -0.125986 -0.267039
5.09938 -0.172031 -0.407335
5.5473 -0.208463 -0.508674
5.78981 -0.229064 -0.562273
0.792626 -0.0331934 0
1.15731 -0.0232276 0.221967
1.73463 -0.0039577 0.224881
2.31366 0.0112974 0.124255
2.85061 0.0178138 -0.0204118
3.33362 0.0163386 -0.178477
4.02761 0.000830409 -0.46526
4.6963 -0.0189593 -0.756462
5.19843 -0.03636 -0.978376
5.47239 -0.0468408 -1.10056
0.549022 -0.0888914 0
0.831343 -0.0766784 0.251476
1.31615 -0.0510104 0.296493
1.84215 -0.0244393 0.223971
2.35711 -0.00242279 0.0869459
2.83694 0.0141902 -0.0801965
3.39161 0.0306391 -0.324883
4.09282 0.0509281 -0.677571
4.62178 0.0646692 -0.950035
4.91118 0.0715921 -1.1015
0.321581 -0.166694 0
0.521263 -0.16237 0.273216
0.886185 -0.144996 0.369014
1.30129 -0.119508 0.358261
1.71841 -0.0913514 0.2843
2.11252 -0.0634896 0.177255
2.47005 -0.0375106 0.0573328
2.99715 0.0091055 -0.169552
3.4538 0.050471 -0.376536
3.70339 0.0730005 -0.491978
0.137181 -0.258018 0
0.259376 -0.265714 0.271861
0.485086 -0.262781 0.412217
0.741971 -0.246163 0.476119
0.998832 -0.221739 0.493042
1.24004 -0.194079 0.482777
1.45758 -0.16617 0.458116
1.64548 -0.14021 0.427672
1.93124 -0.0921214 0.362368
2.08955 -0.0651763 0.324568
0.00990054 -0.355396 0
0.0756509 -0.380237 0.239708
0.189396 -0.401318 0.404251
0.310967 -0.406344 0.526008
0.426998 -0.40082 0.617906
0.532318 -0.389699 0.68871
0.624932 -0.376206 0.744019
0.703425 -0.362515 0.787006
0.76812 -0.349704 0.820219
0.835857 -0.333987 0.853512
-0.0588296 -0.451096 0
-0.0154359 -0.503662 0.158086
0.0516479 -0.568299 0.301642
0.115403 -0.616989 0.432131
0.170824 -0.652137 0.546782
0.217641 -0.677803 0.645972
0.256585 -0.69684 0.730694
0.288201 -0.710964 0.801213
0.312185 -0.720966 0.855861
0.329457 -0.727972 0.897237
-0.0811615 -0.52969 0
-0.0270181 -0.618789 -0.00213339
0.0608218 -0.743655 0.0408547
0.148606 -0.853932 0.0966323
0.228236 -0.946173 0.151605
0.297912 -1.02273 0.201383
0.357576 -1.08601 0.2447
0.407167 -1.13737 0.281001
0.445486 -1.17641 0.309171
0.480172 -1.21295 0.33598
-0.0796984 -0.565588 0
0.00236739 -0.682711 -0.248149
0.146305 -0.854407 -0.397248
0.300682 -1.01201 -0.508976
0.448037 -1.14697 -0.600461
0.581772 -1.26044 -0.677816
0.699391 -1.35487 -0.743556
0.79911 -1.43175 -0.79836
0.900203 -1.50649 -0.852898
0.985307 -1.56793 -0.898178
-0.078428 -0.533711 0
0.0267612 -0.645613 -0.525881
0.215107 -0.807023 -0.898768
0.41947 -0.951505 -1.20409
0.615394 -1.07186 -1.46022
0.793413 -1.17038 -1.67589
0.949943 -1.25039 -1.85658
1.08255 -1.31415 -2.00472
1.24534 -1.38603 -2.1754
1.36017 -1.4352 -2.29309
-0.0943866 -0.427051 0
0.0164107 -0.494202 -0.734763
0.211039 -0.579697 -1.25041
0.416655 -0.645097 -1.6589
0.608952 -0.691594 -1.9883
0.780086 -0.724183 -2.25532
0.928041 -0.746933 -2.47154
1.0517 -0.762606 -2.64374
1.19439 -0.778097 -2.82975
1.29938 -0.788911 -2.96289
-0.136362 -0.264868 0
-0.0360446 -0.270111 -0.802625
0.134165 -0.257687 -1.31586
0.306094 -0.2285 -1.68551
0.460418 -0.192246 -1.9599
0.593094 -0.154905 -2.16695
0.704591 -0.119638 -2.32448
0.795663 -0.0883997 -2.44332
0.878428 -0.0585178 -2.54534
0.950779 -0.0321874 -2.63354
-0.208225 -0.0831804 0
-0.128115 -0.0390886 -0.732525
0.0063014 0.0424718 -1.12855
0.138969 0.130445 -1.36558
0.255302 0.212732 -1.51291
0.353351 0.285389 -1.60635
0.434436 0.347557 -1.66599
0.499832 0.398973 -1.70356
0.549144 0.438457 -1.72599
0.592321 0.476212 -1.74478
-0.310582 0.0839147 0
-0.25801 0.149886 -0.58246
-0.162958 0.252488 -0.82409
-0.0636278 0.350141 -0.915899
0.0274261 0.434704 -0.938101
0.107107 0.505662 -0.927884
0.175169 0.564235 -0.903447
0.231595 0.611424 -0.874577
0.275105 0.646974 -0.84787
0.300514 0.667765 -0.830291
-0.438077 0.218002 0
-0.421799 0.283422 -0.417631
-0.377002 0.372978 -0.532742
-0.318907 0.44983 -0.521279
-0.258593 0.512375 -0.460351
-0.20122 0.563027 -0.383663
-0.149177 0.604012 -0.306343
-0.104067 0.636678 -0.236116
-0.0681334 0.661156 -0.17898
-0.0478233 0.674466 -0.14641
-0.575313 0.316949 0
-0.600656 0.375975 -0.271948
-0.618718 0.447397 -0.309996
-0.619932 0.501447 -0.249495
-0.611716 0.541615 -0.152954
-0.599229 0.572276 -0.0481419
-0.585389 0.5962 0.0523079
-0.572001 0.614867 0.141576
-0.560611 0.628697 0.213484
-0.553932 0.636178 0.254303
-0.697598 0.383385 0
-0.756291 0.442946 -0.139507
-0.826988 0.510787 -0.131179
-0.881405 0.557371 -0.0574053
-0.923212 0.588255 0.0404379
-0.956356 0.609206 0.142748
-0.983162 0.623808 0.239971
-1.00473 0.634098 0.326401
-1.02111 0.641095 0.396238
-1.03011 0.644662 0.436002
-0.779627 0.412535 0
-0.847725 0.478967 0.00202836
-0.928213 0.556664 0.0576602
-0.988662 0.610666 0.137738
-1.03432 0.645933 0.224412
-1.07027 0.668875 0.308809
-1.09936 0.683843 0.386447
-1.12288 0.693526 0.45432
-1.14084 0.699502 0.508669
-1.15077 0.7023 0.539472
-0.807341 0.392676 0
-0.855885 0.460923 0.15988
-0.890665 0.545489 0.282876
-0.892078 0.60863 0.385583
-0.875046 0.652955 0.471809
-0.85021 0.683976 0.54429
-0.823433 0.705805 0.604955
-0.798115 0.721083 0.654697
-0.776973 0.731292 0.692817
-0.764733 0.736397 0.713856
-0.783286 0.319232 0
-0.795622 0.370676 0.306975
-0.754483 0.437247 0.508244
-0.662346 0.490321 0.653361
-0.547523 0.530482 0.76103
-0.428276 0.560907 0.842678
-0.314742 0.584113 0.905418
-0.213482 0.601692 0.953381
-0.131421 0.614328 0.988164
-0.0846046 0.621005 1.00667
				 </DataArray>
			 </PointData>
			 <Points>
				 <DataArray type="Float64" NumberOfComponents="3" format="ascii">
   -882.6850    -882.6850     -76.4000
   -882.6850    -882.6850     -44.9246
   -882.6850    -882.6850     -29.3209
   -882.6850    -882.6850     -20.1685
   -882.6850    -882.6850     -14.2113
   -882.6850    -882.6850     -10.0615
   -882.6850    -882.6850      -7.0488
   -882.6850    -882.6850      -4.8333
   -882.6850    -882.6850      -3.2680
   -882.6850    -882.6850      -2.4483
   -882.6850    -846.6570     -76.4000
   -882.6850    -846.6570     -44.5792
   -882.6850    -846.6570     -28.8043
   -882.6850    -846.6570     -19.5515
   -882.6850    -846.6570     -13.5289
   -882.6850    -846.6570      -9.3336
   -882.6850    -846.6570      -6.2878
   -882.6850    -846.6570      -4.0480
   -882.6850    -846.6570      -2.4656
   -882.6850    -846.6570      -1.6369
   -882.6850    -810.6291     -76.4000
   -882.6850    -810.6291     -44.3336
   -882.6850    -810.6291     -28.4369
   -882.6850    -810.6291     -19.1127
   -882.6850    -810.6291     -13.0436
   -882.6850    -810.6291      -8.8159
   -882.6850    -810.6291      -5.7467
   -882.6850    -810.6291      -3.4895
   -882.6850    -810.6291      -1.8949
   -882.6850    -810.6291      -1.0598
   -882.6850    -774.6011     -76.4000
   -882.6850    -774.6011     -44.3198
   -882.6850    -774.6011     -28.4162
   -882.6850    -774.6011     -19.0879
   -882.6850    -774.6011     -13.0162
   -882.6850    -774.6011      -8.7867
   -882.6850    -774.6011      -5.7161
   -882.6850    -774.6011      -3.4580
   -882.6850    -774.6011      -1.8627
   -882.6850    -774.6011      -1.0272
   -882.6850    -738.5732     -76.4000
   -882.6850    -738.5732     -44.3284
   -882.6850    -738.5732     -28.4290
   -882.6850    -738.5732     -19.1032
   -882.6850    -738.5732     -13.0332
   -882.6850    -738.5732      -8.8048
   -882.6850    -738.5732      -5.7350
   -882.6850    -738.5732      -3.4775
   -882.6850    -738.5732      -1.8826
   -882.6850    -738.5732      -1.0474
   -882.6850    -702.5452     -76.4000
   -882.6850    -702.5452     -44.0665
   -882.6850    -702.5452     -28.0374
   -882.6850    -702.5452     -18.6354
   -882.6850    -702.5452     -12.5158
   -882.6850    -702.5452      -8.2529
   -882.6850    -702.5452      -5.1581
   -882.6850    -702.5452      -2.8821
   -882.6850    -702.5452      -1.2742
   -882.6850    -702.5452      -0.4321
   -882.6850    -666.5172     -76.4000
   -882.6850    -666.5172     -43.4562