<?xml version="1.0"?>
<VTKFile type="UnstructuredGrid" version="1.0" byte_order="LittleEndian" header_type="UInt64">
	 <UnstructuredGrid>
		 <FieldData> 
			 <DataArray type = "Float64" Name = "TimeValue" NumberOfTuples = "1" format = "ascii" RangeMin = "2.000" RangeMax = "2.000"> 
			 2.000 
			 </DataArray > 
		 </FieldData> 
		 <Piece NumberOfPoints="1000" NumberOfCells="441">
			 <PointData Scalars="scalars">
				 <DataArray type="Float64" NumberOfComponents="3" Name="Velocity" format="ascii">
1.11926 -0.553884 0
1.30387 -0.663143 -0.539315
1.56715 -0.824146 -0.950212
1.81196 -0.97445 -1.28398
2.02965 -1.10588 -1.55444
2.22069 -1.21861 -1.7739
2.42505 -1.33558 -1.99163
2.69625 -1.48731 -2.26846
2.89834 -1.59948 -2.47012
3.00803 -1.66003 -2.57785
1.03277 -0.442944 0
1.20024 -0.512163 -0.740961
1.45384 -0.61321 -1.32068
1.70925 -0.706692 -1.81213
1.95283 -0.787794 -2.22713
2.17851 -0.856883 -2.57592
2.43202 -0.92602 -2.92428
2.79643 -1.01506 -3.37729
3.0703 -1.08085 -3.71075
3.21984 -1.11632 -3.89015
0.868973 -0.300736 0
0.988802 -0.312563 -0.815391
1.17329 -0.323032 -1.43913
1.36296 -0.327022 -1.96204
1.5465 -0.326989 -2.40101
1.71806 -0.324852 -2.76851
1.8736 -0.321763 -3.07427
2.14612 -0.318377 -3.51752
2.37042 -0.315338 -3.87133
2.49264 -0.31351 -4.06151
0.631824 -0.158748 0
0.676153 -0.124025 -0.752904
0.738578 -0.06553 -1.29276
0.798223 -0.00639457 -1.72527
0.853062 0.0470427 -2.07774
0.902364 0.0933975 -2.36687
0.94569 0.132716 -2.6039
0.982475 0.165112 -2.79491
1.05651 0.209427 -3.08029
1.09653 0.233414 -3.2337
0.347683 -0.0454141 0
0.317457 0.00722081 -0.618309
0.268107 0.0868877 -1.02961
0.219213 0.160304 -1.34433
0.174601 0.222273 -1.59483
0.134765 0.273325 -1.79781
0.0997141 0.314928 -1.96316
0.0697453 0.348147 -2.09596
0.045994 0.373024 -2.19616
0.029115 0.393023 -2.27874
0.0535778 0.0310041 0
-0.0262665 0.0792727 -0.482367
-0.13158 0.149645 -0.782303
-0.214751 0.212986 -1.00399
-0.276298 0.26597 -1.17856
-0.321908 0.309563 -1.31996
-0.356099 0.345176 -1.43556
-0.381689 0.373727 -1.52885
-0.399951 0.395203 -1.59956
-0.409566 0.406904 -1.63832
-0.222703 0.0852304 0
-0.327862 0.123316 -0.373737
-0.444212 0.180383 -0.584742
-0.509957 0.234823 -0.726839
-0.535914 0.283409 -0.830732
-0.537201 0.325825 -0.910126
-0.524733 0.362273 -0.972112
-0.505937 0.392734 -1.02035
-0.486637 0.416401 -1.05591
-0.474257 0.429577 -1.07505
-0.47232 0.140419 0
-0.599764 0.176333 -0.281138
-0.737108 0.231774 -0.40768
-0.810893 0.286779 -0.463736
-0.835798 0.337483 -0.483559
-0.830845 0.382811 -0.484211
-0.809613 0.422427 -0.474976
-0.781368 0.455942 -0.46144
-0.75352 0.482206 -0.447724
-0.735955 0.496904 -0.438984
-0.696055 0.207227 0
-0.860289 0.253291 -0.176842
-1.06578 0.320769 -0.214737
-1.21905 0.383004 -0.186988
-1.32545 0.436601 -0.129722
-1.39859 0.481874 -0.0614385
-1.44891 0.519678 0.00797062
-1.48321 0.550527 0.0722978
-1.5055 0.574046 0.125717
-1.5164 0.586975 0.156633
-0.887658 0.271877 0
-1.09655 0.334376 -0.0397251
-1.3896 0.421172 0.0177986
-1.64706 0.495348 0.116609
-1.8605 0.55455 0.226466
-2.03589 0.601252 0.333609
-2.17949 0.638005 0.431713
-2.29504 0.66653 0.516975
-2.38228 0.687418 0.584878
-2.42995 0.698591 0.623216
-1.0277 0.301638 0
-1.2702 0.375132 0.133091
-1.62238 0.476578 0.302465
-1.94376 0.562618 0.47647
-2.21856 0.630868 0.635961
-2.44986 0.684471 0.775423
-2.64277 0.726528 0.894226
-2.8002 0.759104 0.992329
-2.92031 0.782929 1.06766
-2.98639 0.795663 1.10922
-1.0925 0.265267 0
-1.34688 0.330239 0.314409
-1.71304 0.421147 0.608014
-2.04264 0.500298 0.87385
-2.32057 0.565102 1.10198
-2.5516 0.617666 1.29334
-2.74223 0.660178 1.45172
-2.89643 0.694017 1.57976
-3.01327 0.719338 1.67656
-3.07725 0.733089 1.72946
-1.06716 0.157464 0
-1.31423 0.186873 0.44197
-1.66534 0.225775 0.826725
-1.97588 0.25866 1.16713
-2.2332 0.285618 1.45801
-2.44376 0.307859 1.70258
-2.61518 0.326264 1.9059
-2.75229 0.341261 2.0711
-2.85524 0.352719 2.19658
-2.91128 0.359035 2.26537
-0.952185 0.00806036 0
-1.17921 -0.0128862 0.453889
-1.50674 -0.0518831 0.832543
-1.80164 -0.0937019 1.16405
-2.04986 -0.132526 1.44826
-2.25562 -0.166605 1.68904
-2.42489 -0.195644 1.89091
-2.5614 -0.219597 2.05624
-2.66457 -0.237959 2.18267
-2.72096 -0.248077 2.2523
-0.764621 -0.137118 0
-0.958763 -0.197409 0.344171
-1.25145 -0.297094 0.603704
-1.52906 -0.398021 0.817387
-1.77362 -0.490119 0.994683
-1.98403 -0.570887 1.14224
-2.16238 -0.640083 1.26473
-2.30968 -0.697582 1.36449
-2.42304 -0.741987 1.44055
-2.48574 -0.766592 1.48238
-0.53636 -0.24762 0
-0.681253 -0.321008 0.168323
-0.91063 -0.435185 0.252445
-1.1403 -0.546096 0.292483
-1.35173 -0.645177 0.308599
-1.53991 -0.731141 0.312023
-1.7036 -0.804388 0.308939
-1.84149 -0.865091 0.302934
-1.94918 -0.911913 0.296457
-2.0093 -0.937846 0.292247
-0.308317 -0.321399 0
-0.391274 -0.390032 -0.00828821
-0.526807 -0.48486 -0.0752229
-0.666989 -0.566801 -0.175755
-0.799149 -0.633775 -0.287433
-0.918738 -0.688174 -0.397591
-1.02399 -0.732293 -0.499564
-1.11339 -0.76752 -0.588972
-1.18363 -0.793957 -0.660651
-1.22299 -0.808346 -0.701291
-0.121262 -0.371144 0
-0.142215 -0.439192 -0.165505
-0.175819 -0.521459 -0.325301
-0.209794 -0.580279 -0.487448
-0.240782 -0.619292 -0.642145
-0.267775 -0.64477 -0.783428
-0.290646 -0.661289 -0.908423
-0.30941 -0.671803 -1.01489
-0.323724 -0.678134 -1.09862
-0.331581 -0.68102 -1.14556
-0.00774864 -0.401479 0
0.0179399 -0.486148 -0.334987
0.0625153 -0.591865 -0.571174
0.110359 -0.670868 -0.759754
0.157055 -0.726025 -0.913418
0.200834 -0.764263 -1.03941
0.240667 -0.790849 -1.1426
0.275502 -0.809205 -1.22563
0.309548 -0.822781 -1.29852
0.345016 -0.833556 -1.36588
0.0129024 -0.398206 0
0.0594762 -0.504658 -0.552714
0.141301 -0.651491 -0.918228
0.227515 -0.777255 -1.18846
0.30859 -0.878853 -1.39435
0.381617 -0.960438 -1.55418
0.445705 -1.02594 -1.67947
0.500092 -1.07781 -1.77684
0.558839 -1.12871 -1.87092
0.608089 -1.16897 -1.94489
-0.0627505 -0.338386 0
-0.0225998 -0.44423 -0.799923
0.0594375 -0.597784 -1.34923
0.152991 -0.737442 -1.77165
0.243659 -0.856477 -2.10564
0.325997 -0.956432 -2.37384
0.398157 -1.03966 -2.59048
0.459076 -1.10752 -2.76324
0.507917 -1.16035 -2.89572
0.564458 -1.21466 -3.03353
-0.223018 -0.21325 0
-0.213782 -0.28082 -0.996117
-0.163659 -0.376282 -1.69544
-0.0861788 -0.460974 -2.2467
-0.000285089 -0.531841 -2.69245
0.083719 -0.590544 -3.05728
0.160799 -0.638924 -3.35664
0.227871 -0.678057 -3.59842
0.281323 -0.707721 -3.78165
0.31151 -0.723972 -3.88205
-0.447048 -0.045346 0
-0.491121 -0.0523061 -1.05705
-0.51166 -0.051851 -1.77617
-0.490481 -0.0420156 -2.32856
-0.446233 -0.0275342 -2.76688
-0.392703 -0.0115786 -3.12063
-0.337954 0.00406878 -3.4078
-0.287112 0.018271 -3.63785
-0.244886 0.029909 -3.81112
-0.220461 0.0365919 -3.90569
-0.712223 0.117212 0
-0.828194 0.156683 -0.970649
-0.961182 0.225672 -1.57607
-1.0499 0.298529 -2.00434
-1.10432 0.366907 -2.3221
-1.13673 0.428084 -2.56507
-1.15542 0.481282 -2.75392
-1.16559 0.525994 -2.90004
-1.17051 0.560817 -3.00719
-1.17222 0.580219 -3.06464
-0.996241 0.229438 0
-1.19048 0.278274 -0.815542
-1.45316 0.352381 -1.27273
-1.67615 0.42194 -1.56139
-1.85654 0.482136 -1.75429
-2.00223 0.532995 -1.8885
-2.12008 0.575412 -1.98439
-2.21408 0.609971 -2.05327
-2.28462 0.636283 -2.10074
-2.32302 0.650732 -2.1251
-1.27475 0.27704 0
-1.53795 0.308917 -0.686632
-1.91006 0.349831 -1.05242
-2.24196 0.381956 -1.27197
-2.5216 0.405841 -1.41227
-2.75479 0.423621 -1.50605
-2.94807 0.436961 -1.57063
-3.10517 0.446916 -1.6155
-3.22469 0.453981 -1.64553
-3.29034 0.45768 -1.66061
-1.52013 0.277971 0
-1.83563 0.291658 -0.618689
-2.28099 0.304529 -0.958157
-2.67628 0.310589 -1.17115
-3.00732 0.312433 -1.31449
-3.28172 0.31207 -1.41573
-3.50796 0.310649 -1.48948
-3.691 0.308838 -1.5436
-3.82978 0.307106 -1.58166
-3.90581 0.306034 -1.60151
-1.70183 0.26072 0
-2.05545 0.268851 -0.587737
-2.54768 0.276996 -0.922322
-2.97611 0.282303 -1.13886
-3.32805 0.286111 -1.28779
-3.61488 0.289155 -1.3946
-3.84802 0.291725 -1.47325
-4.03447 0.293902 -1.53143
-4.17454 0.295632 -1.57258
-4.25083 0.296613 -1.5941
-1.7874 0.243096 0
-2.1665 0.254635 -0.559601
-2.69044 0.269754 -0.878608
-3.14096 0.282992 -1.08075
-3.50615 0.294465 -1.21468
-3.80004 0.304452 -1.30639
-4.03627 0.313094 -1.37059
-4.2234 0.320388 -1.41568
-4.3629 0.326108 -1.44608
-4.43848 0.329314 -1.46141
-1.74897 0.229329 0
-2.13256 0.24345 -0.526644
-2.66346 0.259472 -0.828358
-3.11945 0.270102 -1.01797
-3.48799 0.276662 -1.14115
-3.78353 0.280649 -1.22312
-4.02024 0.283044 -1.27851
-4.20711 0.284442 -1.3159
-4.34603 0.285203 -1.34006
-4.42114 0.285517 -1.35183
-1.5779 0.220361 0
-1.93239 0.234126 -0.500915
-2.42196 0.244653 -0.809263
-2.8409 0.244749 -1.02191
-3.17814 0.238153 -1.17456
-3.44752 0.228237 -1.28719
-3.66252 0.217164 -1.37171
-3.83173 0.206376 -1.43501
-3.95721 0.197152 -1.48012
-4.02494 0.191727 -1.50382
-1.29732 0.219561 0
-1.58683 0.235011 -0.485781
-1.9769 0.246478 -0.827121
-2.30073 0.24541 -1.10092
-2.55409 0.236098 -1.32625
-2.75144 0.222622 -1.51319
-2.90557 0.207693 -1.66805
-3.02468 0.193169 -1.79398
-3.1117 0.180743 -1.88984
-3.1582 0.173431 -1.94251
-0.957021 0.230174 0
-1.15839 0.251624 -0.467164
-1.4091 0.276507 -0.83994
-1.59506 0.292402 -1.17757
-1.72342 0.300883 -1.48196
-1.81113 0.304512 -1.75186
-1.87105 0.3052 -1.98672
-1.91161 0.304257 -2.18482
-1.93776 0.302664 -2.33972
-1.95046 0.301475 -2.42628
-0.610992 0.253652 0
-0.723167 0.282688 -0.426783
-0.837611 0.326816 -0.790645
-0.892417 0.369691 -1.13989
-0.903733 0.408545 -1.46774
-0.889605 0.442853 -1.76665
-0.862403 0.472576 -2.03197
-0.83044 0.497562 -2.259
-0.800449 0.517056 -2.43837
-0.781959 0.527935 -2.53925
-0.297589 0.28949 0
-0.339135 0.324888 -0.358711
-0.361092 0.383205 -0.658688
-0.342445 0.445374 -0.941269
-0.29902 0.506008 -1.20301
-0.244233 0.562514 -1.43945
-0.186654 0.613438 -1.64793
-0.132131 0.657507 -1.82547
-0.0862015 0.692616 -1.96525
-0.0593942 0.712469 -2.04369
-0.0367693 0.33302 0
-0.0299419 0.373017 -0.271744
-0.00209642 0.4352 -0.481217
0.0392784 0.498224 -0.660726
0.0847342 0.557677 -0.814548
0.129062 0.611876 -0.945395
0.169685 0.659987 -1.05556
0.205008 0.70118 -1.14608
0.233144 0.73375 -1.21548
0.258144 0.761418 -1.2746
0.162646 0.374224 0
0.200349 0.417418 -0.177581
0.258698 0.475176 -0.310036
0.312899 0.524498 -0.413202
0.358154 0.564903 -0.492711
0.394577 0.597923 -0.553978
0.423379 0.624863 -0.601225
0.445639 0.646478 -0.637217
0.465751 0.666704 -0.669649
0.48241 0.683661 -0.696661
0.299973 0.399926 0
0.35069 0.445548 -0.0828054
0.424093 0.496231 -0.172411
0.491475 0.528544 -0.255696
0.549548 0.546995 -0.327612
0.598711 0.556665 -0.388296
0.639842 0.560984 -0.438894
0.67345 0.562155 -0.480144
0.713893 0.560599 -0.529961
0.741825 0.55884 -0.56442
0.386531 0.397299 0
0.431492 0.446364 0.0130968
0.49288 0.495554 -0.0617497
0.550421 0.520827 -0.168261
0.603862 0.529965 -0.27986
0.653136 0.530055 -0.385829
0.697717 0.525495 -0.481587
0.736628 0.518985 -0.56426
0.784718 0.508407 -0.669609
0.818066 0.500532 -0.743332
0.447374 0.355739 0
0.479221 0.41076 0.118783
0.508927 0.470513 0.0609972
0.52597 0.507642 -0.0670715
0.537206 0.52887 -0.214333
0.54624 0.540698 -0.358986
0.554335 0.5471 -0.491522
0.561684 0.550361 -0.606563
0.567494 0.552829 -0.726465
0.570469 0.555069 -0.828221
0.513138 0.267171 0
0.546368 0.326483 0.242269
0.561425 0.401773 0.234762
0.544651 0.461347 0.12689
0.510071 0.507006 -0.0118394
0.468094 0.542572 -0.152075
0.424907 0.570696 -0.281426
0.38456 0.592837 -0.39359
0.347034 0.611003 -0.489461
0.303138 0.630524 -0.583893
0.604877 0.129566 0
0.670323 0.182088 0.373862
0.724396 0.259738 0.453836
0.730057 0.331976 0.414914
0.702031 0.39473 0.33424
0.65556 0.448208 0.244181
0.6013 0.493235 0.158301
0.546884 0.530251 0.0829862
0.482412 0.567529 0.00977171
0.424617 0.598637 -0.0470969
0.723202 -0.0463363 0
0.850869 -0.0187292 0.481387
1.00573 0.0338143 0.662884
1.11089 0.0929978 0.722696
1.17176 0.15064 0.733331
1.20199 0.203281 0.724942
1.21267 0.249575 0.710292
1.21152 0.290611 0.6952
1.20227 0.346344 0.684394
1.19517 0.376573 0.678097
0.850716 -0.235675 0
1.04968 -0.250212 0.520829
1.33401 -0.25275 0.778538
1.58568 -0.237974 0.932445
1.79408 -0.214413 1.03895
1.96463 -0.188045 1.1202
2.10361 -0.162192 1.18543
2.31431 -0.125726 1.28085
2.48612 -0.0950964 1.35909
2.57788 -0.0781571 1.4013
0.965521 -0.407466 0
1.21123 -0.470003 0.456215
1.58461 -0.542703 0.719737
1.94398 -0.592212 0.914696
2.26705 -0.623561 1.07581
2.55124 -0.643196 1.21392
2.87194 -0.657335 1.36246
3.29251 -0.670249 1.54748
3.60523 -0.678455 1.68571
3.77475 -0.682409 1.76088
1.05404 -0.536036 0
1.30229 -0.635622 0.287691
1.67575 -0.765288 0.468087
2.03294 -0.869764 0.621666
2.3529 -0.949922 0.763469
2.63364 -1.01159 0.894013
2.9719 -1.07248 1.05765
3.37643 -1.13671 1.25619
3.67734 -1.18289 1.40557
3.84047 -1.20733 1.48715
1.1131 -0.607881 0
1.33554 -0.726739 0.052532
1.65259 -0.887912 0.0858147
1.93774 -1.02463 0.133717
2.17939 -1.13472 0.195645
2.38156 -1.22307 0.264141
2.59032 -1.31117 0.356701
2.8518 -1.4198 0.493435
3.04396 -1.49873 0.598007
3.14724 -1.54082 0.655738
1.14145 -0.619914 0
1.33951 -0.744276 -0.212136
1.61071 -0.919464 -0.363915
1.84451 -1.07508 -0.465379
2.0355 -1.20574 -0.527785
2.19028 -1.31436 -0.563557
2.33315 -1.42051 -0.582299
2.51338 -1.56748 -0.591028
2.64465 -1.67516 -0.593352
2.71475 -1.73292 -0.593076
1.12992 -0.57339 0
1.31653 -0.68824 -0.479233
1.57886 -0.856418 -0.840196
1.81743 -1.01238 -1.12761
2.02494 -1.14807 -1.35566
2.20362 -1.26404 -1.53718
2.38769 -1.383 -1.71182
2.63007 -1.54034 -1.93474
2.80992 -1.65652 -2.09614
2.90725 -1.71918 -2.18198
1.06029 -0.473452 0
1.23402 -0.554647 -0.70197
1.4939 -0.674371 -1.24987
1.75172 -0.786235 -1.71206
1.99466 -0.884048 -2.10053
2.2178 -0.967883 -2.42577
2.47172 -1.05405 -2.7569
2.82378 -1.16325 -3.17863
3.08816 -1.24405 -3.48873
3.23242 -1.28767 -3.65544
1.21648 -0.561811 0
1.45446 -0.673491 -0.418908
1.79469 -0.832308 -0.736501
2.10622 -0.973184 -0.980125
2.37696 -1.09009 -1.16265
2.60933 -1.18568 -1.29896
2.9067 -1.29646 -1.44884
3.22189 -1.40861 -1.59699
3.45538 -1.49041 -1.70138
3.58159 -1.53412 -1.75581
1.16971 -0.473066 0
1.41196 -0.551228 -0.630862
1.78464 -0.661769 -1.10939
2.15666 -0.75996 -1.48615
2.50402 -0.841957 -1.77752
2.81894 -0.909538 -2.00185
3.28701 -0.992721 -2.26112
3.74913 -1.07008 -2.49459
4.09561 -1.12679 -2.66096
4.28442 -1.15721 -2.74838
1.0278 -0.355628 0
1.22571 -0.38542 -0.736286
1.53754 -0.423451 -1.28456
1.85515 -0.455368 -1.71927
2.15491 -0.482121 -2.06199
2.428 -0.504979 -2.33224
2.77531 -0.534093 -2.61099
3.18988 -0.569351 -2.90627
3.50011 -0.59556 -3.11933
3.66895 -0.609776 -3.23232
0.793518 -0.233737 0
0.901847 -0.221526 -0.722304
1.06818 -0.198195 -1.23792
1.23233 -0.175021 -1.64436
1.38248 -0.156092 -1.97006
1.51547 -0.141833 -2.23355
1.63061 -0.131559 -2.44729
1.80034 -0.125081 -2.71806
1.95801 -0.121213 -2.9592
2.04305 -0.119394 -3.08819
0.497737 -0.129866 0
0.51257 -0.0962174 -0.635598
0.537325 -0.0420755 -1.06323
0.564986 0.00983463 -1.39331
0.592239 0.0544569 -1.65897
0.617144 0.0914686 -1.87707
0.638852 0.121656 -2.05714
0.656949 0.145711 -2.20359
0.68338 0.171524 -2.36805
0.705182 0.190119 -2.48914
0.184283 -0.0521253 0
0.131967 -0.0153519 -0.530298
0.0718289 0.0449613 -0.854202
0.0357968 0.106291 -1.08521
0.0190695 0.162962 -1.26136
0.0142861 0.213411 -1.40075
0.0162048 0.257268 -1.51292
0.0214019 0.294191 -1.60252
0.0273918 0.323015 -1.67001
0.0313897 0.339105 -1.70687
-0.114064 0.00892735 0
-0.208893 0.0390479 -0.436511
-0.314867 0.0897906 -0.660676
-0.376372 0.144013 -0.784728
-0.402915 0.196574 -0.854255
-0.407783 0.245223 -0.892617
-0.400466 0.288817 -0.912646
-0.387323 0.326379 -0.921803
-0.3732 0.356209 -0.924791
-0.363983 0.373044 -0.925041
-0.38697 0.0711989 0
-0.520564 0.0956545 -0.361932
-0.683898 0.132865 -0.511792
-0.80045 0.169298 -0.556754
-0.876712 0.202602 -0.547277
-0.92544 0.232225 -0.510663
-0.956104 0.258038 -0.462282
-0.974872 0.279836 -0.411734
-0.985632 0.296899 -0.366887
-0.990295 0.306443 -0.339996
-0.636535 0.144888 0
-0.819045 0.174417 -0.292368
-1.07168 0.211644 -0.400151
-1.28951 0.239768 -0.41813
-1.46694 0.259492 -0.391758
-1.61063 0.273118 -0.344981
-1.72692 0.282484 -0.290874
-1.81963 0.288831 -0.237477
-1.88915 0.292915 -0.191544
-1.92696 0.294888 -0.164453
-0.858528 0.219953 0
-1.0935 0.266119 -0.197914
-1.43882 0.324531 -0.265032
-1.75688 0.368439 -0.27489
-2.03035 0.398884 -0.259735
-2.26126 0.419593 -0.234488
-2.45421 0.433564 -0.206388
-2.61184 0.442828 -0.179427
-2.73218 0.44865 -0.15671
-2.7984 0.451406 -0.143489
-1.03323 0.267175 0
-1.30941 0.330223 -0.0578577
-1.71804 0.41603 -0.0459231
-2.0951 0.487899 -0.0121018
-2.41851 0.544438 0.0245209
-2.69044 0.58861 0.0577938
-2.91659 0.623155 0.0860863
-3.10054 0.649861 0.10907
-3.24044 0.669369 0.126363
-3.31723 0.679791 0.135748
-1.13153 0.255292 0
-1.42845 0.317224 0.108817
-1.86266 0.40504 0.237471
-2.25684 0.483052 0.361717
-2.5895 0.548275 0.469888
-2.86523 0.602204 0.560513
-3.09174 0.646559 0.635006
-3.27411 0.682364 0.69473
-3.41169 0.709459 0.739526
-3.48679 0.724285 0.763857
-1.12843 0.175596 0
-1.42312 0.208972 0.237946
-1.85263 0.253496 0.460922
-2.24105 0.291189 0.664626
-2.56776 0.321928 0.841432
-2.83779 0.347086 0.991468
-3.05912 0.36773 1.11696
-3.23697 0.384424 1.21938
-3.37094 0.397096 1.29741
-3.444 0.404051 1.34028
-1.01563 0.0525969 0
-1.28395 0.0431346 0.267557
-1.68017 0.0193873 0.492767
-2.04508 -0.0105908 0.68918
-2.35756 -0.0411218 0.856583
-2.61993 -0.0696012 0.997695
-2.83788 -0.094946 1.11553
-3.01498 -0.116536 1.21176
-3.14956 -0.133486 1.28518
-3.22339 -0.142969 1.32556
-0.809656 -0.0737572 0
-1.02524 -0.115817 0.193411
-1.34897 -0.189427 0.32038
-1.65469 -0.267609 0.40898
-1.92308 -0.341371 0.471862
-2.15343 -0.407617 0.517428
-2.34833 -0.465376 0.550976
-2.50909 -0.514007 0.575654
-2.63269 -0.551929 0.592976
-2.70102 -0.573073 0.60198
-0.550347 -0.17733 0
-0.690878 -0.229278 0.0665233
-0.900287 -0.3103 0.0550503
-1.09858 -0.389089 -0.00153116
-1.27425 -0.45947 -0.0785032
-1.42663 -0.5205 -0.161242
-1.55684 -0.572467 -0.241561
-1.66519 -0.615504 -0.314115
-1.74907 -0.64868 -0.373427
-1.79567 -0.667047 -0.407446
-0.287392 -0.256887 0
-0.345852 -0.305437 -0.0580606
-0.423052 -0.36737 -0.172852
-0.48779 -0.415138 -0.323885
-0.540193 -0.449664 -0.485826
-0.582839 -0.474467 -0.643556
-0.61768 -0.492342 -0.788837
-0.645758 -0.505128 -0.915973
-0.66702 -0.513839 -1.01784
-0.67867 -0.518259 -1.07559
-0.0642064 -0.322797 0
-0.0523753 -0.375798 -0.170105
-0.0188522 -0.433399 -0.330729
0.0267892 -0.466548 -0.492299
0.0759724 -0.481095 -0.645465
0.123946 -0.484155 -0.784543
0.16819 -0.480702 -0.906955
0.206961 -0.474066 -1.01076
0.238066 -0.466803 -1.09211
0.276177 -0.457267 -1.17824
0.0897039 -0.376131 0
0.150516 -0.452398 -0.308484
0.253909 -0.544907 -0.514685
0.360686 -0.61126 -0.670928
0.459744 -0.655383 -0.79186
0.547963 -0.68427 -0.886158
0.624615 -0.703046 -0.959788
0.689106 -0.71503 -1.01651
0.77372 -0.726063 -1.0803
0.830443 -0.73254 -1.12107
0.157382 -0.399124 0
0.248331 -0.504331 -0.51264
0.396513 -0.647508 -0.834733
0.542469 -0.768778 -1.06129
0.672322 -0.866182 -1.22583
0.783999 -0.944248 -1.34771
0.878326 -1.00695 -1.43896
0.955918 -1.05667 -1.50687
1.06842 -1.125 -1.59419
1.13205 -1.16327 -1.64208
0.131311 -0.365371 0
0.233927 -0.478321 -0.766517
0.413501 -0.638342 -1.27004
0.601616 -0.780171 -1.64289
0.776393 -0.898619 -1.9293
0.931379 -0.996612 -2.15414
1.06519 -1.07734 -2.33246
1.17704 -1.14265 -2.47259
1.3483 -1.23171 -2.66623
1.44345 -1.28082 -2.77221
0.0128636 -0.263039 0
0.0975445 -0.345532 -0.98899
0.270171 -0.458554 -1.65173
0.472704 -0.5546 -2.15219
0.675258 -0.631636 -2.54375
0.864109 -0.693112 -2.85641
1.03306 -0.742213 -3.10821
1.17797 -0.780922 -3.30875
1.37276 -0.823595 -3.54156
1.50281 -0.850526 -3.69086
-0.187065 -0.112609 0
-0.161905 -0.14026 -1.08765
-0.0741282 -0.168758 -1.79256
0.0541746 -0.183729 -2.30656
0.196277 -0.189032 -2.69653
0.336522 -0.188662 -2.99996
0.46652 -0.185263 -3.23916
0.580665 -0.180559 -3.42637
0.672292 -0.175872 -3.56489
0.749769 -0.172578 -3.6663
-0.447571 0.0391854 0
-0.514305 0.0536397 -1.04879
-0.580473 0.0827755 -1.68513
-0.612913 0.115807 -2.12012
-0.622523 0.147727 -2.43232
-0.6194 0.176649 -2.66403
-0.609888 0.201939 -2.83953
-0.597939 0.223243 -2.97238
-0.586503 0.239848 -3.0681
-0.579409 0.249101 -3.11881
-0.738407 0.148578 0
-0.899502 0.172253 -0.950635
-1.12427 0.205473 -1.50108
-1.32258 0.233328 -1.86423
-1.48868 0.254741 -2.119
-1.62679 0.270888 -2.30534
-1.74116 0.283012 -2.44513
-1.8341 0.292001 -2.5503
-1.90484 0.298319 -2.62576
-1.9437 0.301598 -2.66566
-1.0248 0.201807 0
-1.25915 0.213233 -0.875184
-1.59704 0.223203 -1.38555
-1.90449 0.22592 -1.73086
-2.16756 0.223874 -1.98149
-2.38942 0.219329 -2.17142
-2.57485 0.213735 -2.31879
-2.7265 0.208045 -2.43301
-2.8424 0.203065 -2.51704
-2.90623 0.2001 -2.56223
-1.27458 0.216546 0
-1.55834 0.215221 -0.847566
-1.96231 0.207738 -1.3593
-2.32375 0.196907 -1.71857
-2.62813 0.185616 -1.98754
-2.88139 0.175111 -2.19647
-3.09072 0.165846 -2.36171
-3.26038 0.158034 -2.49171
-3.38915 0.151955 -2.58841
-3.45975 0.148575 -2.64078
-1.4598 0.221307 0
-1.7787 0.2185 -0.845254
-2.22699 0.212164 -1.36592
-2.62164 0.206042 -1.73333
-2.94901 0.201539 -2.0069
-3.21792 0.198637 -2.21733
-3.43785 0.196968 -2.38197
-3.61459 0.196155 -2.51018
-3.74784 0.195881 -2.6047
-3.82058 0.195859 -2.65558
-1.55265 0.234071 0
-1.89617 0.240173 -0.836071
-2.37964 0.247354 -1.35194
-2.80517 0.253676 -1.70995
-3.15775 0.259664 -1.96964
-3.44694 0.265402 -2.16375
-3.68312 0.270779 -2.31148
-3.87266 0.2756 -2.42367
-4.01541 0.27955 -2.50466
-4.09329 0.281826 -2.54762
-1.52749 0.256508 0
-1.87467 0.275588 -0.805821
-2.36523 0.298748 -1.30716
-2.79854 0.315936 -1.65435
-3.15847 0.328182 -1.90388
-3.45422 0.337029 -2.08808
-3.69609 0.343532 -2.22638
-3.89039 0.348319 -2.33
-4.03685 0.351689 -2.40392
-4.11678 0.353446 -2.44278
-1.37543 0.282149 0
-1.69052 0.314821 -0.755272
-2.12879 0.354904 -1.24141
-2.5087 0.383746 -1.59059
-2.8191 0.402782 -1.85001
-3.0707 0.415034 -2.0472
-3.27421 0.422785 -2.19907
-3.43629 0.427547 -2.31539
-3.55765 0.430282 -2.39988
-3.6236 0.431468 -2.44486
-1.11884 0.30513 0
-1.36333 0.350714 -0.685814
-1.67862 0.410253 -1.15147
-1.92566 0.456733 -1.50813
-2.10792 0.490288 -1.78962
-2.2422 0.51416 -2.01529
-2.34183 0.531104 -2.19722
-2.41536 0.543 -2.34202
-2.46704 0.550946 -2.45047
-2.49391 0.55491 -2.50942
-0.806457 0.324007 0
-0.956105 0.377974 -0.594993
-1.10289 0.453488 -1.01856
-1.16324 0.518459 -1.36357
-1.16151 0.570622 -1.65194
-1.12438 0.612005 -1.8946
-1.07015 0.644746 -2.09815
-1.01118 0.670285 -2.26538
-0.957772 0.689066 -2.39374
-0.925407 0.699142 -2.46466
-0.490371 0.342596 0
-0.550341 0.397163 -0.485501
-0.551783 0.476233 -0.836205
-0.462289 0.548368 -1.12971
-0.318882 0.610167 -1.38177
-0.152859 0.662338 -1.59877
0.0154726 0.705994 -1.78415
0.171881 0.741733 -1.93866
0.302175 0.769076 -2.05854
0.377752 0.784146 -2.12523
-0.206802 0.365939 0
-0.206566 0.417297 -0.36966
-0.141595 0.491033 -0.63153
-0.0152608 0.558595 -0.846588
0.14138 0.617204 -1.02842
0.305841 0.667396 -1.18301
0.464361 0.709963 -1.31373
0.607277 0.745217 -1.42181
0.724095 0.772439 -1.50514
0.836274 0.794343 -1.5764
0.0255984 0.393455 0
0.0599118 0.443081 -0.256189
0.137708 0.511696 -0.43317
0.234169 0.572293 -0.572425
0.332912 0.623341 -0.685302
0.425819 0.666042 -0.777862
0.509161 0.701573 -0.853853
0.58062 0.73055 -0.915201
0.646796 0.755749 -0.9694
0.708593 0.777421 -1.01869
0.198479 0.417312 0
0.254822 0.466304 -0.146766
0.341442 0.529502 -0.252365
0.421719 0.581296 -0.333874
0.488864 0.622347 -0.397616
0.543131 0.65508 -0.44814
0.586282 0.681307 -0.488481
0.619842 0.702069 -0.520352
0.654798 0.724151 -0.554801
0.68017 0.74032 -0.580285
0.311139 0.426872 0
0.382079 0.474528 -0.0438604
0.486608 0.528308 -0.101757
0.583939 0.565068 -0.15592
0.668808 0.589411 -0.201447
0.741441 0.605902 -0.238758
0.802837 0.617357 -0.269108
0.853473 0.625384 -0.293377
0.921675 0.634013 -0.324848
0.963927 0.639029 -0.344156
0.374029 0.413085 0
0.450717 0.461271 0.0518224
0.56758 0.507906 0.00980051
0.68458 0.530447 -0.0601163
0.795098 0.537523 -0.131999
0.896653 0.536348 -0.197624
0.987684 0.53118 -0.254662
1.06636 0.524526 -0.302274
1.18273 0.511303 -0.373305
1.2506 0.503222 -0.414342
0.410388 0.368487 0
0.488355 0.423637 0.152704
0.604106 0.47928 0.113673
0.716054 0.507519 0.00250167
0.818559 0.516959 -0.126825
0.910439 0.515804 -0.252833
0.991231 0.509241 -0.366996
1.06004 0.500495 -0.465038
1.1492 0.485826 -0.602174
1.20443 0.476138 -0.687888
0.449726 0.284826 0
0.536843 0.349953 0.278483
0.655779 0.429678 0.274122
0.754219 0.487421 0.150755
0.829332 0.526168 -0.0130306
0.885416 0.551769 -0.182328
0.92691 0.568579 -0.341325
0.957093 0.579435 -0.481255
0.980448 0.591149 -0.655338
0.993427 0.598923 -0.776253
0.51523 0.155969 0
0.62962 0.221121 0.429151
0.78086 0.317279 0.518635
0.894978 0.405325 0.456354
0.96963 0.480117 0.331963
1.01405 0.542414 0.187868
1.03745 0.593789 0.0447629
1.04704 0.635273 -0.0854606
1.03647 0.688685 -0.253767
1.02568 0.723075 -0.363164
0.613708 -0.0129393 0
0.77184 0.0301861 0.569977
0.988825 0.109626 0.796366
1.16273 0.198147 0.86766
1.28727 0.284736 0.866465
1.37251 0.364624 0.832256
1.42907 0.435711 0.78481
1.46703 0.503771 0.731197
1.4999 0.596222 0.663202
1.51539 0.64646 0.624434
0.735598 -0.200524 0
0.93891 -0.202735 0.642848
1.22988 -0.18311 0.99143
1.48242 -0.142306 1.21481
1.6847 -0.091167 1.37382
1.84406 -0.0373407 1.49496
1.96912 0.0145786 1.59068
2.12751 0.0887522 1.71946
2.27087 0.159303 1.83894
2.34667 0.198171 1.90283
0.864227 -0.375542 0
1.0945 -0.432747 0.597875
1.42745 -0.497835 0.979455
1.72575 -0.539524 1.28152
1.9761 -0.56289 1.54011
2.18404 -0.574578 1.76647
2.35612 -0.579221 1.96399
2.6484 -0.577831 2.29822
2.86495 -0.575046 2.55068
2.98118 -0.572915 2.68806
0.985788 -0.509874 0
1.21708 -0.610725 0.430661
1.54125 -0.746608 0.724114
1.82344 -0.861262 0.977463
2.05534 -0.953619 1.20885
2.24514 -1.02813 1.41994
2.417 -1.09397 1.63016
2.67257 -1.18582 1.96138
2.85964 -1.25292 2.21022
2.95998 -1.28886 2.34605
1.09202 -0.588441 0
1.31192 -0.711039 0.185118
1.6046 -0.881647 0.308912
1.84317 -1.03112 0.425271
2.02634 -1.15543 0.540339
2.16665 -1.25826 0.650856
2.2851 -1.35333 0.767109
2.43829 -1.49166 0.952994
2.54801 -1.59307 1.09336
2.60595 -1.64751 1.17023
1.17435 -0.609357 0
1.39253 -0.735918 -0.0885627
1.67965 -0.913419 -0.161658
1.91176 -1.06931 -0.206796
2.0887 -1.19841 -0.228013
2.22306 -1.30433 -0.233487
2.34186 -1.40986 -0.228509
2.47995 -1.54957 -0.215561
2.57822 -1.65155 -0.202916
2.62984 -1.70611 -0.194978
1.21557 -0.576908 0
1.44909 -0.693505 -0.358206
1.77616 -0.858888 -0.629995
2.06747 -1.00521 -0.836225
2.31411 -1.12645 -0.98856
2.52117 -1.22549 -1.10071
2.76852 -1.33756 -1.21926
3.03881 -1.45646 -1.34177
3.23791 -1.54314 -1.42765
3.34511 -1.58945 -1.47226
1.18913 -0.497779 0
1.43377 -0.58589 -0.587786
1.80486 -0.71115 -1.03396
2.16976 -0.822651 -1.38376
2.50663 -0.915673 -1.65273
2.80962 -0.992145 -1.85863
3.25443 -1.08532 -2.09706
3.69413 -1.172 -2.31259
4.02332 -1.23546 -2.46579
4.20253 -1.26945 -2.54615
				 </DataArray>
			 </PointData>
			 <Points>
				 <DataArray type="Float64" NumberOfComponents="3" format="ascii">
   -882.6850    -882.6850     -76.4000
   -882.6850    -882.6850     -41.3954
   -882.6850    -882.6850     -24.0420
   -882.6850    -882.6850     -13.8634
   -882.6850    -882.6850      -7.2382
   -882.6850    -882.6850      -2.6231
   -882.6850    -882.6850       0.7274
   -882.6850    -882.6850       3.1913
   -882.6850    -882.6850       4.9321
   -882.6850    -882.6850       5.8437
   -882.6850    -846.6570     -76.4000
   -882.6850    -846.6570     -41.4281
   -882.6850    -846.6570     -24.0910
   -882.6850    -846.6570     -13.9218
   -882.6850    -846.6570      -7.3029
   -882.6850    -846.6570      -2.6921
   -882.6850    -846.6570       0.6553
   -882.6850    -846.6570       3.1169
   -882.6850    -846.6570       4.8560
   -882.6850    -846.6570       5.7668
   -882.6850    -810.6291     -76.4000
   -882.6850    -810.6291     -41.9061
   -882.6850    -810.6291     -24.8060
   -882.6850    -810.6291     -14.7759
   -882.6850    -810.6291      -8.2474
   -882.6850    -810.6291      -3.6997
   -882.6850    -810.6291      -0.3980
   -882.6850    -810.6291       2.0300
   -882.6850    -810.6291       3.7453
   -882.6850    -810.6291       4.6436
   -882.6850    -774.6011     -76.4000
   -882.6850    -774.6011     -42.8051
   -882.6850    -774.6011     -26.1506
   -882.6850    -774.6011     -16.3819
   -882.6850    -774.6011     -10.0235
   -882.6850    -774.6011      -5.5943
   -882.6850    -774.6011      -2.3788
   -882.6850    -774.6011      -0.0140
   -882.6850    -774.6011       1.6566
   -882.6850    -774.6011       2.5315
   -882.6850    -738.5732     -76.4000
   -882.6850    -738.5732     -43.7104
   -882.6850    -738.5732     -27.5047
   -882.6850    -738.5732     -17.9992
   -882.6850    -738.5732     -11.8122
   -882.6850    -738.5732      -7.5024
   -882.6850    -738.5732      -4.3734
   -882.6850    -738.5732      -2.0724
   -882.6850    -738.5732      -0.4468
   -882.6850    -738.5732       0.4045
   -882.6850    -702.5452     -76.4000
   -882.6850    -702.5452     -44.2851
   -882.6850    -702.5452     -28.3644
   -882.6850    -702.5452     -19.0260
   -882.6850    -702.5452     -12.9478
   -882.6850    -702.5452      -8.7137
   -882.6850    -702.5452      -5.6398
   -882.6850    -702.5452      -3.3792
   -882.6850    -702.5452      -1.7822
   -882.6850    -702.5452      -0.9458
   -882.6850    -666.5172     -76.4000
   -882.6850    -666.5172     -44.5731
   -882.6850    -666.5172     -28.7951
   -882.6850    -666.5172     -19.5404
   -882.6850    -666.5172     -13.5167
   -882.6850    -666.5172      -9.3206
   -882.6850    -666.5172      -6.2742
   -882.6850    -666.5172      -4.0339
   -882.6850    -666.5172      -2.4512
   -882.6850    -666.5172      -1.6224