<?xml version="1.0"?>
<VTKFile type="UnstructuredGrid" version="1.0" byte_order="LittleEndian" header_type="UInt64">
	 <UnstructuredGrid>
		 <FieldData> 
			 <DataArray type = "Float64" Name = "TimeValue" NumberOfTuples = "1" format = "ascii" RangeMin = "5.000" RangeMax = "5.000"> 
			 5.000 
			 </DataArray > 
		 </FieldData> 
		 <Piece NumberOfPoints="1000" NumberOfCells="441">
			 <PointData Scalars="scalars">
				 <DataArray type="Float64" NumberOfComponents="3" Name="Velocity" format="ascii">
-0.00205529 -0.217916 0
-0.11212 -0.22874 -0.618936
-0.294382 -0.238332 -0.972416
-0.480232 -0.241658 -1.20833
-0.651366 -0.241093 -1.37843
-0.80277 -0.23858 -1.50692
-0.933495 -0.235269 -1.60643
-1.04284 -0.231853 -1.68347
-1.12773 -0.228861 -1.74008
-1.17494 -0.227084 -1.7705
-0.240851 -0.0741488 0
-0.401778 -0.0623997 -0.601378
-0.666561 -0.0452649 -0.933012
-0.93756 -0.0299381 -1.14634
-1.18919 -0.0172776 -1.29559
-1.4138 -0.00703047 -1.40583
-1.6093 0.00119098 -1.48983
-1.77395 0.00766545 -1.55412
-1.90247 0.0124572 -1.60101
-1.9742 0.0150373 -1.6261
-0.411601 0.0849591 0
-0.589425 0.125324 -0.532245
-0.875209 0.180561 -0.81711
-1.16139 0.227433 -0.996059
-1.42285 0.264963 -1.11959
-1.65349 0.294854 -1.21031
-1.85245 0.318673 -1.27937
-2.01888 0.337409 -1.33232
-2.14815 0.351301 -1.37104
-2.22007 0.358799 -1.39182
-0.504331 0.231674 0
-0.663281 0.298383 -0.401572
-0.908681 0.39042 -0.596791
-1.14399 0.469748 -0.706797
-1.35126 0.53446 -0.775571
-1.52876 0.586974 -0.822004
-1.67829 0.629557 -0.855016
-1.80102 0.663571 -0.879002
-1.89498 0.689112 -0.895853
-1.94675 0.703021 -0.904663
-0.540193 0.340981 0
-0.662963 0.419542 -0.224147
-0.845988 0.525467 -0.297924
-1.01439 0.614532 -0.313276
-1.15703 0.685715 -0.305319
-1.27491 0.74255 -0.288363
-1.37116 0.788057 -0.268755
-1.44807 0.824049 -0.249746
-1.50567 0.850876 -0.233683
-1.53694 0.865415 -0.224329
-0.554123 0.40314 0
-0.648586 0.47499 -0.0438067
-0.794147 0.564349 -0.0129847
-0.934198 0.631662 0.0391434
-1.05781 0.679595 0.0929481
-1.16358 0.713781 0.14236
-1.25247 0.738387 0.1856
-1.32519 0.756043 0.221934
-1.38067 0.768144 0.250173
-1.41116 0.77432 0.265873
-0.567888 0.425449 0
-0.649284 0.484837 0.104853
-0.783296 0.551843 0.191944
-0.923169 0.594628 0.253054
-1.0557 0.618648 0.291525
-1.17583 0.630721 0.314077
-1.28156 0.635563 0.326182
-1.3713 0.636235 0.331685
-1.44173 0.634879 0.333323
-1.48116 0.633471 0.333303
-0.575815 0.420325 0
-0.644462 0.476786 0.232864
-0.753123 0.5436 0.359317
-0.864484 0.590638 0.414608
-0.969859 0.621591 0.42465
-1.06587 0.641736 0.408729
-1.15094 0.654782 0.379479
-1.22364 0.663089 0.345404
-1.28101 0.668097 0.313502
-1.31326 0.670383 0.293841
-0.552879 0.391097 0
-0.591507 0.454371 0.374986
-0.630929 0.540905 0.578941
-0.653441 0.616466 0.682036
-0.66492 0.679686 0.723176
-0.670247 0.732416 0.728141
-0.672252 0.776271 0.713167
-0.672523 0.812066 0.688835
-0.672025 0.839414 0.663291
-0.671519 0.854481 0.646751
-0.476917 0.329362 0
-0.463545 0.395459 0.541936
-0.39519 0.492666 0.876588
-0.287116 0.58499 1.10027
-0.164331 0.667885 1.25344
-0.0418596 0.740928 1.3606
0.0722256 0.80428 1.43669
0.172641 0.857665 1.49065
0.253339 0.899423 1.52722
0.299158 0.922776 1.54573
-0.347973 0.225015 0
-0.270025 0.277345 0.701088
-0.0871581 0.352017 1.16981
0.14373 0.420226 1.52407
0.382996 0.479489 1.8031
0.610364 0.530445 2.0281
0.816039 0.57387 2.21123
0.993629 0.610006 2.35852
1.13453 0.638024 2.46992
1.25334 0.660377 2.55844
-0.193217 0.0782809 0
-0.0544447 0.100758 0.804532
0.22135 0.127357 1.34598
0.537289 0.144948 1.75862
0.846834 0.154902 2.08669
1.13048 0.159753 2.35374
1.38062 0.161437 2.57301
1.59266 0.161289 2.75075
1.85975 0.159671 2.95746
2.04255 0.158253 3.09548
-0.0557501 -0.0946607 0
0.120035 -0.108892 0.824672
0.446911 -0.131376 1.36619
0.805526 -0.155049 1.76186
1.14799 -0.178454 2.06223
1.45657 -0.200744 2.2965
1.72553 -0.221266 2.48195
1.98795 -0.242162 2.64695
2.33806 -0.270219 2.847
2.52719 -0.285604 2.95372
0.0266196 -0.264168 0
0.195767 -0.312857 0.758214
0.504331 -0.372959 1.25983
0.842512 -0.417214 1.62543
1.16799 -0.447795 1.8998
1.46418 -0.468927 2.11036
1.72479 -0.48368 2.27414
2.00967 -0.495616 2.42913
2.35269 -0.506865 2.59716
2.53846 -0.512603 2.6863
0.0383546 -0.397063 0
0.155801 -0.472228 0.61663
0.367726 -0.562165 1.05714
0.60271 -0.623981 1.40798
0.833538 -0.662073 1.69314
1.04796 -0.684224 1.92713
1.24009 -0.696214 2.11936
1.4054 -0.701887 2.2747
1.66506 -0.700645 2.49036
1.81187 -0.69907 2.61042
-0.0142969 -0.467887 0
0.0319921 -0.559881 0.419965
0.11141 -0.677085 0.762652
0.198695 -0.767134 1.07197
0.285755 -0.831993 1.34833
0.368352 -0.878506 1.59139
0.443877 -0.912039 1.80157
0.510003 -0.936079 1.97804
0.564989 -0.952818 2.11948
0.630687 -0.967057 2.2721
-0.118813 -0.463515 0
-0.13526 -0.561172 0.192652
-0.168293 -0.696191 0.388521
-0.206275 -0.812875 0.591811
-0.243315 -0.908274 0.788326
-0.276948 -0.985818 0.969505
-0.306296 -1.04878 1.13096
-0.330911 -1.09912 1.26926
-0.350002 -1.13694 1.37851
-0.360597 -1.15755 1.43992
-0.270945 -0.382948 0
-0.335275 -0.470019 -0.0336828
-0.442539 -0.597514 -0.013557
-0.55478 -0.715203 0.0357171
-0.661238 -0.81699 0.0962609
-0.75794 -0.903538 0.158227
-0.843278 -0.976342 0.216518
-0.91592 -1.03618 0.268003
-0.973076 -1.08208 0.30941
-1.00514 -1.10743 0.332915
-0.474618 -0.238475 0
-0.584336 -0.295461 -0.212676
-0.748492 -0.380937 -0.344696
-0.903653 -0.461433 -0.436878
-1.04061 -0.531861 -0.505121
-1.15903 -0.592105 -0.557862
-1.25997 -0.642925 -0.59965
-1.34382 -0.684737 -0.632734
-1.40866 -0.716822 -0.657543
-1.44465 -0.734534 -0.671076
-0.727365 -0.0564378 0
-0.893957 -0.0720685 -0.298136
-1.13087 -0.0955743 -0.502755
-1.34098 -0.117274 -0.660451
-1.51595 -0.135605 -0.785933
-1.66 -0.150669 -0.887591
-1.77802 -0.162881 -0.970494
-1.87297 -0.172567 -1.03722
-1.94463 -0.179773 -1.08769
-1.98378 -0.183665 -1.11533
-1.00467 0.129126 0
-1.23578 0.148842 -0.281068
-1.56535 0.175876 -0.472009
-1.85771 0.199389 -0.615824
-2.10063 0.218995 -0.72678
-2.29991 0.235342 -0.813748
-2.46254 0.248964 -0.882457
-2.5929 0.260118 -0.936202
-2.69097 0.26867 -0.975899
-2.74441 0.273394 -0.997277
-1.25992 0.29022 0
-1.54103 0.330687 -0.195403
-1.94609 0.383571 -0.329859
-2.31034 0.426221 -0.431308
-2.61681 0.458916 -0.508907
-2.87094 0.484043 -0.568871
-3.08014 0.503496 -0.61547
-3.24903 0.518446 -0.651319
-3.37678 0.529334 -0.677399
-3.44665 0.535143 -0.691289
-1.44647 0.414609 0
-1.74232 0.468215 -0.0739216
-2.16497 0.537302 -0.13998
-2.54302 0.591802 -0.200317
-2.86047 0.632481 -0.25293
-3.12363 0.662856 -0.297678
-3.34038 0.685702 -0.335109
-3.51549 0.702784 -0.365618
-3.64805 0.714926 -0.388824
-3.72061 0.721291 -0.401553
-1.54704 0.501203 0
-1.82047 0.569518 0.0812318
-2.19483 0.661515 0.106516
-2.51539 0.738452 0.104662
-2.77551 0.799342 0.0903205
-2.9856 0.847363 0.0710002
-3.15523 0.88531 0.050593
-3.29021 0.914943 0.0313922
-3.39125 0.936784 0.0153483
-3.44615 0.948527 0.00604215
-1.58207 0.548218 0
-1.81751 0.632226 0.280719
-2.11466 0.750601 0.444013
-2.34435 0.855254 0.549537
-2.51326 0.942451 0.620837
-2.63807 1.01435 0.670631
-2.73127 1.07335 0.706176
-2.8006 1.12088 0.731622
-2.84973 1.15678 0.749069
-2.87543 1.17641 0.757985
-1.58672 0.547995 0
-1.79862 0.639787 0.513077
-2.04914 0.770037 0.850827
-2.22394 0.885883 1.10326
-2.33717 0.982859 1.29963
-2.40933 1.06314 1.45581
-2.45484 1.12923 1.58119
-2.48289 1.18262 1.68076
-2.49914 1.22306 1.75527
-2.50627 1.24519 1.79576
-1.58005 0.490738 0
-1.79267 0.576273 0.74086
-2.04799 0.695032 1.24279
-2.23027 0.797166 1.62682
-2.35173 0.879748 1.93077
-2.43182 0.945996 2.17569
-2.48453 0.999083 2.37433
-2.51875 1.04102 2.53337
-2.53987 1.07222 2.65312
-2.54974 1.0891 2.71846
-1.55592 0.371707 0
-1.77636 0.437102 0.931563
-2.05018 0.526726 1.55959
-2.25597 0.601467 2.0319
-2.40199 0.659543 2.39809
-2.50564 0.704215 2.68747
-2.57983 0.738584 2.91823
-2.63274 0.764742 3.10038
-2.66878 0.78359 3.23601
-2.68708 0.793559 3.30946
-1.49842 0.199094 0
-1.71661 0.229325 1.0593
-1.98862 0.272411 1.77275
-2.19399 0.309089 2.30088
-2.34057 0.337602 2.70135
-2.44539 0.359276 3.01058
-2.52105 0.375645 3.25186
-2.57551 0.387833 3.43869
-2.61295 0.396424 3.57558
-2.63211 0.400889 3.64891
-1.40018 0.000989074 0
-1.60698 -0.0188446 1.08448
-1.865 -0.043436 1.8239
-2.06002 -0.0622263 2.37244
-2.19948 -0.076056 2.78652
-2.29949 -0.0863858 3.10388
-2.37196 -0.0942313 3.34938
-2.42436 -0.100187 3.53786
-2.46056 -0.104491 3.67492
-2.47914 -0.106778 3.74792
-1.26609 -0.177081 0
-1.46404 -0.248038 0.974489
-1.7254 -0.344958 1.64889
-1.93951 -0.425977 2.15669
-2.10647 -0.489315 2.54505
-2.23692 -0.538394 2.84606
-2.33945 -0.576441 3.08119
-2.41931 -0.605604 3.26318
-2.47812 -0.626748 3.39641
-2.50973 -0.637982 3.4677
-1.10554 -0.292279 0
-1.30115 -0.393204 0.752706
-1.58845 -0.533416 1.2782
-1.85558 -0.652907 1.68173
-2.08844 -0.747943 1.99779
-2.28777 -0.822689 2.24871
-2.45636 -0.881376 2.44914
-2.59552 -0.92685 2.60741
-2.70262 -0.960111 2.72519
-2.76188 -0.977888 2.78896
-0.926052 -0.328472 0
-1.11659 -0.431024 0.492628
-1.42371 -0.573201 0.840079
-1.7362 -0.694732 1.11486
-2.02698 -0.792063 1.33801
-2.28762 -0.869279 1.52156
-2.51542 -0.930456 1.67292
-2.70797 -0.978271 1.79574
-2.85869 -1.01351 1.88917
-2.94297 -1.03245 1.9405
-0.732443 -0.299004 0
-0.904243 -0.386076 0.257106
-1.19496 -0.506408 0.444876
-1.50308 -0.609769 0.602096
-1.79749 -0.693487 0.737312
-2.06596 -0.760844 0.854153
-2.30337 -0.814998 0.954449
-2.50568 -0.857915 1.03846
-2.66495 -0.889926 1.10394
-2.75431 -0.907277 1.14049
-0.528005 -0.22884 0
-0.665915 -0.295319 0.0696527
-0.898597 -0.388567 0.127715
-1.14384 -0.470671 0.184177
-1.37689 -0.53905 0.238616
-1.58844 -0.595573 0.289594
-1.77483 -0.642138 0.335903
-1.93321 -0.679826 0.37629
-2.05763 -0.708423 0.408676
-2.12734 -0.724105 0.427071
-0.314534 -0.139194 0
-0.412766 -0.181538 -0.0650923
-0.568981 -0.24302 -0.108686
-0.723394 -0.299402 -0.139181
-0.862668 -0.348034 -0.160535
-0.984066 -0.389374 -0.175657
-1.08771 -0.424185 -0.186478
-1.17364 -0.45284 -0.194196
-1.23991 -0.47486 -0.199452
-1.27661 -0.487035 -0.202121
-0.0915407 -0.0468626 0
-0.157231 -0.0577573 -0.133718
-0.255246 -0.0735003 -0.234391
-0.34389 -0.0880579 -0.317705
-0.417078 -0.100729 -0.387326
-0.475937 -0.111555 -0.445704
-0.522736 -0.120683 -0.494509
-0.559234 -0.128188 -0.534511
-0.585998 -0.133942 -0.565169
-0.600312 -0.137117 -0.582093
0.142677 0.0291747 0
0.0974685 0.0529602 -0.118029
0.0212444 0.0918555 -0.201034
-0.0558081 0.130811 -0.266786
-0.125407 0.166157 -0.320043
-0.185746 0.197108 -0.363551
-0.236892 0.22365 -0.399107
-0.279003 0.245754 -0.427682
-0.311283 0.262867 -0.44923
-0.329078 0.27237 -0.460992
0.386452 0.0669381 0
0.357399 0.113687 -0.0261683
0.285199 0.19008 -0.015162
0.191757 0.266616 0.0116894
0.0933262 0.335907 0.0437072
-0.00149952 0.396309 0.0760385
-0.0882911 0.447815 0.10635
-0.163975 0.490461 0.133171
-0.224499 0.523305 0.154827
-0.27223 0.548387 0.171853
0.628946 0.0500334 0
0.623014 0.0939452 0.0934648
0.568597 0.165348 0.228593
0.47776 0.236656 0.378211
0.373227 0.300974 0.522551
0.268392 0.356784 0.653615
0.17039 0.404135 0.768535
0.0838946 0.443143 0.865588
-0.000103038 0.478879 0.955886
-0.0812037 0.512238 1.04014
0.847703 -0.0222521 0
0.87498 -0.00950051 0.170859
0.864268 0.00862799 0.386101
0.814437 0.0247385 0.615311
0.749512 0.0380357 0.832163
0.683 0.0487544 1.02627
0.621212 0.0572797 1.19444
0.56746 0.0639126 1.33502
0.483189 0.0723229 1.5403
0.434925 0.076984 1.65698
1.01301 -0.131786 0
1.07474 -0.165381 0.148115
1.11731 -0.226391 0.331843
1.12535 -0.2927 0.526323
1.1204 -0.355983 0.708912
1.11337 -0.413159 0.870809
1.10811 -0.463177 1.00966
1.10349 -0.525643 1.17461
1.09976 -0.591538 1.34416
1.09843 -0.627175 1.43538
1.09835 -0.24853 0
1.18104 -0.318536 0.018124
1.25635 -0.437556 0.0517455
1.29748 -0.56139 0.0886163
1.32327 -0.676631 0.121285
1.34363 -0.77907 0.147585
1.36208 -0.867657 0.167632
1.39004 -0.99689 0.189479
1.41572 -1.11009 0.206641
1.43025 -1.1712 0.21535
1.09087 -0.344568 0
1.17373 -0.423783 -0.164013
1.24819 -0.548583 -0.319584
1.28279 -0.671051 -0.473373
1.29511 -0.780983 -0.618355
1.29666 -0.87647 -0.750513
1.29326 -0.957763 -0.867806
1.28199 -1.07097 -1.03788
1.26989 -1.17481 -1.19621
1.263 -1.2307 -1.28226
0.994601 -0.40462 0
1.06301 -0.471899 -0.331205
1.11944 -0.566431 -0.627822
1.136 -0.65018 -0.909854
1.12862 -0.720276 -1.16832
1.109 -0.778336 -1.39869
1.08407 -0.826151 -1.59942
1.04801 -0.879573 -1.83883
1.005 -0.937864 -2.10882
0.980728 -0.969078 -2.25484
0.824757 -0.42512 0
0.872297 -0.475501 -0.454726
0.911103 -0.535889 -0.821084
0.923287 -0.580281 -1.14944
0.920336 -0.611765 -1.44121
0.910016 -0.634454 -1.69654
0.896629 -0.651099 -1.91636
0.882315 -0.663868 -2.11896
0.866458 -0.676772 -2.41204
0.857239 -0.683501 -2.57021
0.599227 -0.406489 0
0.616799 -0.444084 -0.538104
0.628178 -0.482403 -0.921322
0.632228 -0.503319 -1.23776
0.635496 -0.512486 -1.50615
0.640058 -0.514973 -1.73457
0.645932 -0.51389 -1.92769
0.652446 -0.511116 -2.08723
0.672035 -0.502855 -2.29238
0.686616 -0.496681 -2.42616
0.336527 -0.347797 0
0.305521 -0.375683 -0.591249
0.25113 -0.402303 -0.96462
0.198685 -0.414237 -1.2425
0.155708 -0.416556 -1.4619
0.122635 -0.413685 -1.63973
0.09797 -0.408338 -1.78504
0.0801182 -0.402192 -1.90219
0.06799 -0.396517 -1.99087
0.0631044 -0.391564 -2.06756
0.0618755 -0.247815 0
-0.0329148 -0.262816 -0.617252
-0.189873 -0.276834 -0.974678
-0.348904 -0.282677 -1.21704
-0.494089 -0.283251 -1.39425
-0.621462 -0.281054 -1.52964
-0.730625 -0.277601 -1.63541
-0.821365 -0.273819 -1.71785
-0.891462 -0.270407 -1.77873
-0.930311 -0.268349 -1.81156
-0.188642 -0.111012 0
-0.339927 -0.105414 -0.609693
-0.589599 -0.0959449 -0.947973
-0.845602 -0.0864077 -1.16677
-1.08351 -0.0778876 -1.3204
-1.29594 -0.0706132 -1.43413
-1.48086 -0.0645503 -1.52087
-1.63661 -0.059641 -1.58729
-1.75818 -0.0559336 -1.63573
-1.82603 -0.0539118 -1.66163
0.158286 -0.29048 0
0.0725527 -0.321971 -0.698601
-0.0716426 -0.366573 -1.13517
-0.218656 -0.407395 -1.45442
-0.353136 -0.443152 -1.70242
-0.471251 -0.474198 -1.90103
-0.572591 -0.500901 -2.06199
-0.656926 -0.523299 -2.19104
-0.722145 -0.540778 -2.28843
-0.758321 -0.550543 -2.34167
-0.0831664 -0.133663 0
-0.224983 -0.13434 -0.720561
-0.459067 -0.137182 -1.17672
-0.697026 -0.142089 -1.518
-0.915719 -0.14818 -1.78967
-1.10898 -0.154688 -2.01207
-1.27574 -0.161075 -2.19572
-1.41518 -0.166925 -2.34525
-1.5234 -0.171768 -2.45944
-1.58358 -0.17457 -2.52237
-0.271484 0.0451172 0
-0.43665 0.0855779 -0.663897
-0.701102 0.143559 -1.07943
-0.962737 0.195754 -1.38834
-1.19841 0.239992 -1.63352
-1.40355 0.277045 -1.83395
-1.57852 0.307875 -1.99932
-1.7235 0.333012 -2.13392
-1.83527 0.352188 -2.23667
-1.89714 0.36274 -2.29329
-0.397051 0.21002 0
-0.553841 0.285595 -0.517717
-0.795732 0.394496 -0.818277
-1.02622 0.493272 -1.02564
-1.22758 0.577586 -1.18046
-1.39859 0.648636 -1.30104
-1.5416 0.708044 -1.39685
-1.65824 0.756674 -1.47255
-1.74706 0.793885 -1.52908
-1.79584 0.8144 -1.55978
-0.475527 0.329492 0
-0.607475 0.417268 -0.314122
-0.805792 0.537757 -0.463977
-0.990289 0.640833 -0.545189
-1.14848 0.72429 -0.591971
-1.28086 0.791567 -0.61959
-1.39022 0.845818 -0.635839
-1.47855 0.888955 -0.645063
-1.54529 0.921232 -0.649859
-1.58175 0.938769 -0.651715
-0.533732 0.393807 0
-0.642543 0.470785 -0.11567
-0.805665 0.566558 -0.149078
-0.958868 0.637938 -0.156703
-1.09219 0.687665 -0.15586
-1.20545 0.722053 -0.152008
-1.30033 0.745884 -0.147165
-1.37787 0.76227 -0.142281
-1.43703 0.773017 -0.138035
-1.46956 0.778307 -0.135516
-0.588547 0.416177 0
-0.682005 0.478783 0.0427457
-0.817571 0.551533 0.0712165
-0.941905 0.600184 0.0731446
-1.04878 0.629386 0.0552323
-1.13903 0.645789 0.026343
-1.2144 0.654151 -0.00701797
-1.27593 0.657608 -0.0401999
-1.32286 0.658309 -0.0689609
-1.34866 0.658007 -0.0860113
-0.635029 0.415883 0
-0.714936 0.477876 0.18311
-0.814234 0.558198 0.272158
-0.888709 0.62305 0.293838
-0.941042 0.673078 0.273408
-0.977499 0.711782 0.230312
-1.00289 0.741911 0.177322
-1.02039 0.765159 0.123176
-1.03186 0.782135 0.0755607
-1.0375 0.791205 0.0471148
-0.650715 0.398963 0
-0.710938 0.471702 0.346685
-0.759771 0.579081 0.555296
-0.766054 0.680695 0.680153
-0.744379 0.771072 0.750521
-0.708182 0.849823 0.786816
-0.666267 0.917395 0.802283
-0.62461 0.9738 0.805509
-0.588537 1.01758 0.80255
-0.567163 1.04194 0.798987
-0.61224 0.353749 0
-0.642066 0.43148 0.539613
-0.633173 0.548989 0.920535
-0.575346 0.662275 1.21683
-0.492176 0.764193 1.45188
-0.400526 0.853655 1.64062
-0.310324 0.93081 1.79285
-0.228147 0.995451 1.91399
-0.160596 1.04576 2.00471
-0.121725 1.07379 2.05402
-0.513768 0.262917 0
-0.50087 0.327646 0.725049
-0.42782 0.41982 1.26419
-0.314064 0.502045 1.71002
-0.187845 0.571006 2.08368
-0.0645619 0.628168 2.39784
0.04833 0.675277 2.66093
0.146356 0.713373 2.87675
0.224325 0.742241 3.04218
0.268298 0.758055 3.1335
-0.376202 0.11974 0
-0.31292 0.153695 0.858502
-0.165677 0.196237 1.49178
0.0126049 0.227171 2.00856
0.189096 0.247397 2.43608
0.350103 0.260004 2.79163
0.490807 0.26751 3.08678
0.608895 0.271671 3.32726
0.700519 0.273694 3.51068
0.751383 0.274392 3.6116
-0.239779 -0.0618286 0
-0.138272 -0.0709812 0.90371
0.068186 -0.0871398 1.55875
0.304552 -0.105035 2.07959
0.533658 -0.122801 2.49933
0.740864 -0.139527 2.84037
0.921288 -0.154706 3.11797
1.0725 -0.167911 3.34054
1.20902 -0.180065 3.53253
1.34214 -0.191689 3.71012
-0.14273 -0.248039 0
-0.0433029 -0.302518 0.835546
0.152162 -0.375797 1.44456
0.375817 -0.435203 1.93255
0.595514 -0.479857 2.32858
0.797446 -0.513002 2.65217
0.976006 -0.537593 2.91674
1.12769 -0.555657 3.12956
1.3001 -0.571831 3.35333
1.43566 -0.582948 3.52259
-0.102569 -0.398755 0
-0.0492095 -0.487279 0.661209
0.050356 -0.605408 1.16063
0.162541 -0.700907 1.58066
0.273318 -0.772843 1.93747
0.376334 -0.826493 2.24051
0.468597 -0.866537 2.49622
0.547907 -0.896142 2.70718
0.610721 -0.916926 2.86958
0.682717 -0.934348 3.03787
-0.115939 -0.484351 0
-0.12212 -0.589839 0.422532
-0.142035 -0.734562 0.761899
-0.170051 -0.85772 1.06644
-0.199978 -0.956556 1.33876
-0.228505 -1.0354 1.57909
-0.254124 -1.09832 1.78777
-0.276006 -1.14786 1.96366
-0.293176 -1.18461 2.1012
-0.302769 -1.20446 2.17808
-0.174657 -0.492707 0
-0.224907 -0.600283 0.163005
-0.325812 -0.752469 0.313862
-0.444838 -0.887957 0.463436
-0.564762 -1.00189 0.605204
-0.677132 -1.09677 0.734754
-0.777956 -1.17538 0.849739
-0.864555 -1.23926 0.948061
-0.933023 -1.28788 1.02568
-0.971519 -1.31459 1.06931
-0.280845 -0.426259 0
-0.356259 -0.521985 -0.0849981
-0.488828 -0.659651 -0.12489
-0.632192 -0.784406 -0.141979
-0.769953 -0.890816 -0.14758
-0.895513 -0.980399 -0.147654
-1.00622 -1.05522 -0.145246
-1.10022 -1.1164 -0.141966
-1.17398 -1.16317 -0.138816
-1.21525 -1.18894 -0.13688
-0.446166 -0.298084 0
-0.546492 -0.367895 -0.287008
-0.697245 -0.468113 -0.483634
-0.838813 -0.55795 -0.636326
-0.961919 -0.633366 -0.759771
-1.06645 -0.69579 -0.861693
-1.15399 -0.747109 -0.946376
-1.22552 -0.788489 -1.01568
-1.28009 -0.819762 -1.06883
-1.31009 -0.836858 -1.09821
-0.674878 -0.129853 0
-0.820323 -0.16478 -0.40896
-1.02371 -0.215042 -0.695759
-1.20001 -0.259517 -0.92007
-1.34335 -0.295966 -1.10005
-1.45868 -0.325298 -1.24649
-1.55122 -0.348734 -1.36618
-1.62434 -0.367139 -1.46259
-1.6787 -0.380734 -1.53554
-1.7081 -0.388048 -1.57547
-0.945727 0.0521785 0
-1.15232 0.0511971 -0.439567
-1.44425 0.0466907 -0.749517
-1.7014 0.0400817 -0.99093
-1.91418 0.0330708 -1.18241
-2.08835 0.0264857 -1.33599
-2.23031 0.0206582 -1.45966
-2.34402 0.015744 -1.55793
-2.42954 0.0119273 -1.63143
-2.47614 0.00980952 -1.67134
-1.21188 0.224384 0
-1.46903 0.2521 -0.394174
-1.83589 0.285885 -0.68216
-2.16367 0.310308 -0.913903
-2.43881 0.326751 -1.10225
-2.66695 0.337716 -1.25604
-2.85494 0.345027 -1.38154
-3.00691 0.349852 -1.48226
-3.12203 0.352888 -1.55814
-3.18506 0.354332 -1.59953
-1.42524 0.370144 0
-1.7016 0.42432 -0.285267
-2.08886 0.49734 -0.509523
-2.42898 0.558011 -0.70223
-2.71088 0.60551 -0.866838
-2.94244 0.642522 -1.00637
-3.13195 0.67143 -1.12354
-3.28436 0.693765 -1.21967
-3.39936 0.710081 -1.2933
-3.46218 0.718798 -1.33389
-1.56675 0.477543 0
-1.83256 0.555432 -0.112171
-2.18752 0.667103 -0.213713
-2.48271 0.767227 -0.310601
-2.71607 0.851349 -0.399292
-2.90046 0.921043 -0.478138
-3.04667 0.978381 -0.546647
-3.16132 1.02464 -0.604282
-3.24616 1.05962 -0.649233
-3.29191 1.07875 -0.674307
-1.65313 0.536684 0
-1.90112 0.627676 0.113382
-2.21435 0.760144 0.190483
-2.45672 0.881368 0.249415
-2.63506 0.985234 0.295921
-2.76685 1.07276 0.333257
-2.86523 1.14581 0.363416
-2.93837 1.20544 0.387468
-2.99014 1.25093 0.405512
-3.01721 1.27595 0.415333
-1.71308 0.540896 0
-1.96039 0.629627 0.350698
-2.27046 0.754901 0.611874
-2.5081 0.865782 0.830196
-2.68123 0.958269 1.01515
-2.80794 1.03463 1.17195
-2.90164 1.09738 1.30405
-2.97069 1.14801 1.41289
-3.0192 1.1863 1.49658
-3.04442 1.20726 1.54286
-1.75852 0.487526 0
-2.02378 0.564323 0.560815
-2.36675 0.668441 0.964598
-2.64065 0.755704 1.2913
-2.84893 0.824718 1.56127
-3.00785 0.879072 1.78602
-3.13006 0.92197 1.97287
-3.22341 0.955441 2.12532
-3.29104 0.980097 2.24173
-3.32699 0.993349 2.30582
-1.77711 0.377363 0
-2.06112 0.436852 0.732975
-2.4334 0.517699 1.24342
-2.73479 0.584827 1.64001
-2.96648 0.636965 1.95601
-3.1448 0.677137 2.21132
-3.2829 0.708126 2.41855
-3.389 0.731782 2.58445
-3.46622 0.748876 2.70932
-3.50739 0.757937 2.77744
-1.74658 0.218416 0
-2.03634 0.249074 0.855149
-2.41226 0.293302 1.44873
-2.71062 0.332039 1.90297
-2.93442 0.363283 2.25799
-3.10231 0.388006 2.53941
-3.22914 0.407449 2.76393
-3.32437 0.422502 2.94104
-3.39232 0.433491 3.07276
-3.42803 0.439353 3.14403
-1.65251 0.0349872 0
-1.935 0.0201169 0.886832
-2.29967 0.000508332 1.5103
-2.58561 -0.0158221 1.98915
-2.79654 -0.0289299 2.3626
-2.95175 -0.0395164 2.65724
-3.06668 -0.0481127 2.89104
-3.15129 -0.0550079 3.07448
-3.21058 -0.0602116 3.21024
-3.24134 -0.0630569 3.28345
-1.49577 -0.130774 0
-1.76456 -0.195389 0.789152
-2.12401 -0.28963 1.34159
-2.41952 -0.375041 1.76274
-2.64846 -0.447092 2.08851
-2.82516 -0.506825 2.34352
-2.962 -0.555925 2.54442
-3.06698 -0.595483 2.70105
-3.14321 -0.625347 2.81637
-3.18378 -0.641656 2.87833
-1.28994 -0.237373 0
-1.54077 -0.331862 0.579882
-1.90248 -0.470993 0.964175
-2.22963 -0.598226 1.24116
-2.50705 -0.706268 1.44504
-2.73887 -0.796263 1.59789
-2.93105 -0.870496 1.71387
-3.08711 -0.930457 1.80145
-3.20572 -0.975807 1.86425
-3.2708 -1.0006 1.89738
-1.05439 -0.268485 0
-1.27908 -0.362641 0.333036
-1.63011 -0.497764 0.521485
-1.97671 -0.618235 0.631865
-2.29235 -0.718568 0.695497
-2.57104 -0.800938 0.731099
-2.81202 -0.868139 0.749792
-3.01413 -0.921967 0.758317
-3.17147 -0.962427 0.76104
-3.25915 -0.984462 0.761211
-0.806662 -0.236511 0
-0.993936 -0.311412 0.119477
-1.30244 -0.413039 0.154335
-1.62304 -0.498047 0.143687
-1.92606 -0.565014 0.110705
-2.20075 -0.617502 0.0685306
-2.44282 -0.658718 0.0244507
-2.64869 -0.690721 -0.0169743
-2.81057 -0.714196 -0.0516381
-2.90134 -0.726774 -0.0717782
-0.557952 -0.165318 0
-0.698737 -0.217357 -0.0348393
-0.932556 -0.283714 -0.0933702
-1.17687 -0.33461 -0.164497
-1.4084 -0.371153 -0.237382
-1.61853 -0.397264 -0.30637
-1.80382 -0.416015 -0.368695
-1.96144 -0.429406 -0.422503
-2.0854 -0.438527 -0.465208
-2.1549 -0.443157 -0.48928
-0.313269 -0.0751682 0
-0.406342 -0.104761 -0.133803
-0.553018 -0.141908 -0.244616
-0.697343 -0.169502 -0.34139
-0.827364 -0.188431 -0.424127
-0.940724 -0.2012 -0.493998
-1.03757 -0.209763 -0.552388
-1.11795 -0.215419 -0.60007
-1.17999 -0.218965 -0.636442
-1.21435 -0.220642 -0.656443
-0.0736577 0.0179038 0
-0.13013 0.0149812 -0.176212
-0.212541 0.0115165 -0.310949
-0.285119 0.00898647 -0.420518
-0.343468 0.00718202 -0.508999
-0.389192 0.00586315 -0.580356
-0.424657 0.00487817 -0.637781
-0.451681 0.00414128 -0.683253
-0.471099 0.00361546 -0.717107
-0.48133 0.00333872 -0.735422
0.162226 0.0951068 0
0.123204 0.122639 -0.148925
0.0575737 0.162297 -0.264793
-0.00839249 0.196973 -0.36224
-0.0677159 0.224857 -0.443858
-0.119027 0.24683 -0.511933
-0.162489 0.264028 -0.568344
-0.198281 0.277278 -0.614128
-0.225736 0.286905 -0.648894
-0.240884 0.292024 -0.667955
0.396002 0.133387 0
0.361455 0.183066 -0.0538904
0.279726 0.25772 -0.0935547
0.176789 0.326981 -0.129162
0.0699702 0.386175 -0.162336
-0.0320238 0.435572 -0.192966
-0.124859 0.476293 -0.220615
-0.205526 0.509127 -0.244653
-0.26989 0.53391 -0.263896
-0.318718 0.551931 -0.278535
0.625221 0.113832 0
0.598263 0.163294 0.0712091
0.505854 0.239384 0.142701
0.374916 0.312933 0.209564
0.233435 0.378629 0.267259
0.0962977 0.435721 0.315313
-0.0291663 0.484469 0.354586
-0.138283 0.524949 0.385889
-0.225277 0.556225 0.409238
-0.319676 0.589464 0.433264
0.838234 0.0326996 0
0.835171 0.0549011 0.163673
0.766465 0.0873611 0.321656
0.651864 0.118792 0.476749
0.524591 0.147895 0.620388
0.401759 0.174314 0.748712
0.290909 0.197812 0.860429
0.196004 0.218012 0.954463
0.0838013 0.241926 1.06456
0.00116799 0.259549 1.14544
1.01283 -0.093502 0
1.05136 -0.115958 0.16577
1.04503 -0.157594 0.318719
0.994076 -0.202338 0.473383
0.929367 -0.244039 0.623073
0.866491 -0.280785 0.762199
0.811415 -0.312206 0.887292
0.758418 -0.343231 1.01524
0.691791 -0.384268 1.18458
0.656326 -0.406325 1.27677
1.12233 -0.233356 0
1.20759 -0.296035 0.0601376
1.28081 -0.401983 0.0923327
1.31462 -0.512348 0.122647
1.3311 -0.615781 0.155765
1.3423 -0.708594 0.190454
1.3527 -0.789645 0.224598
1.37059 -0.907402 0.276095
1.38824 -1.01328 0.323557
1.39853 -1.0706 0.349908
1.14697 -0.354874 0
1.26432 -0.434112 -0.112477
1.39866 -0.558061 -0.260035
1.49874 -0.680498 -0.416872
1.5759 -0.792201 -0.565589
1.63872 -0.891124 -0.699855
1.69132 -0.976962 -0.817582
1.77387 -1.11852 -1.01694
1.83824 -1.22881 -1.17256
1.87323 -1.28853 -1.25687
1.08239 -0.438324 0
1.20596 -0.511137 -0.285576
1.3631 -0.611231 -0.578284
1.49346 -0.698435 -0.872547
1.59987 -0.770915 -1.14993
1.68752 -0.830911 -1.40188
1.75986 -0.880452 -1.62463
1.87584 -0.954092 -1.99505
1.96663 -1.01159 -2.29027
2.01532 -1.04248 -2.45062
0.938815 -0.477676 0
1.04464 -0.536859 -0.421637
1.19005 -0.605073 -0.782776
1.32258 -0.65142 -1.11499
1.4393 -0.680607 -1.41391
1.5409 -0.698514 -1.67778
1.62815 -0.709181 -1.90656
1.76253 -0.71307 -2.23587
1.88366 -0.713881 -2.52975
1.94893 -0.713835 -2.68885
0.733518 -0.472874 0
0.799865 -0.523802 -0.524086
0.897904 -0.577989 -0.901662
0.997488 -0.609615 -1.20864
1.09395 -0.624944 -1.46289
1.18426 -0.630405 -1.67437
1.26615 -0.630223 -1.84971
1.36503 -0.623872 -2.03216
1.4902 -0.611816 -2.23904
1.55821 -0.604796 -2.35013
0.486089 -0.42222 0
0.49079 -0.46942 -0.611161
0.495886 -0.525845 -1.00339
0.505836 -0.567171 -1.29241
0.521713 -0.596401 -1.51512
0.541462 -0.617452 -1.69067
0.562718 -0.632926 -1.83032
0.583359 -0.64434 -1.94025
0.614401 -0.656544 -2.05206
0.641582 -0.665959 -2.13404
0.221096 -0.321981 0
0.152273 -0.358368 -0.685117
0.0361255 -0.408466 -1.11253
-0.0814129 -0.45288 -1.42343
-0.187747 -0.490812 -1.66329
-0.280145 -0.523148 -1.85404
-0.358689 -0.550599 -2.00764
-0.423556 -0.573412 -2.13011
-0.473423 -0.591101 -2.2221
-0.500975 -0.600945 -2.27223
-0.0290866 -0.17451 0
-0.160089 -0.183975 -0.721409
-0.377544 -0.199372 -1.17702
-0.599431 -0.215704 -1.51651
-0.803797 -0.231656 -1.78564
-0.984653 -0.246587 -2.0052
-1.14086 -0.260111 -2.18597
-1.27157 -0.271872 -2.33283
-1.37309 -0.28128 -2.44479
-1.42955 -0.286616 -2.50641
				 </DataArray>
			 </PointData>
			 <Points>
				 <DataArray type="Float64" NumberOfComponents="3" format="ascii">
   -882.6850    -882.6850     -76.4000
   -882.6850    -882.6850     -44.7906
   -882.6850    -882.6850     -29.1204
   -882.6850    -882.6850     -19.9291
   -882.6850    -882.6850     -13.9465
   -882.6850    -882.6850      -9.7790
   -882.6850    -882.6850      -6.7535
   -882.6850    -882.6850      -4.5286
   -882.6850    -882.6850      -2.9567
   -882.6850    -882.6850      -2.1335
   -882.6850    -846.6570     -76.4000
   -882.6850    -846.6570     -45.5409
   -882.6850    -846.6570     -30.2426
   -882.6850    -846.6570     -21.2694
   -882.6850    -846.6570     -15.4288
   -882.6850    -846.6570     -11.3603
   -882.6850    -846.6570      -8.4066
   -882.6850    -846.6570      -6.2344
   -882.6850    -846.6570      -4.6999
   -882.6850    -846.6570      -3.8962
   -882.6850    -810.6291     -76.4000
   -882.6850    -810.6291     -45.8129
   -882.6850    -810.6291     -30.6495
   -882.6850    -810.6291     -21.7554
   -882.6850    -810.6291     -15.9663
   -882.6850    -810.6291     -11.9336
   -882.6850    -810.6291      -9.0060
   -882.6850    -810.6291      -6.8529
   -882.6850    -810.6291      -5.3319
   -882.6850    -810.6291      -4.5353
   -882.6850    -774.6011     -76.4000
   -882.6850    -774.6011     -45.6205
   -882.6850    -774.6011     -30.3617
   -882.6850    -774.6011     -21.4116
   -882.6850    -774.6011     -15.5861
   -882.6850    -774.6011     -11.5281
   -882.6850    -774.6011      -8.5820
   -882.6850    -774.6011      -6.4154
   -882.6850    -774.6011      -4.8848
   -882.6850    -774.6011      -4.0832
   -882.6850    -738.5732     -76.4000
   -882.6850    -738.5732     -45.2847
   -882.6850    -738.5732     -29.8594
   -882.6850    -738.5732     -20.8117
   -882.6850    -738.5732     -14.9227
   -882.6850    -738.5732     -10.8203
   -882.6850    -738.5732      -7.8421
   -882.6850    -738.5732      -5.6519
   -882.6850    -738.5732      -4.1046
   -882.6850    -738.5732      -3.2943
   -882.6850    -702.5452     -76.4000
   -882.6850    -702.5452     -45.1529
   -882.6850    -702.5452     -29.6624
   -882.6850    -702.5452     -20.5764
   -882.6850    -702.5452     -14.6624
   -882.6850    -702.5452     -10.5427
   -882.6850    -702.5452      -7.5519
   -882.6850    -702.5452      -5.3524
   -882.6850    -702.5452      -3.7985
   -882.6850    -702.5452      -2.9848
   -882.6850    -666.5172     -76.4000
   -882.6850    -666.5172     -45.2219
   -882.6850    -666.5172     -29.7655
   -882.6850    -666.5172     -20.6996