<?xml version="1.0"?>
<VTKFile type="UnstructuredGrid" version="1.0" byte_order="LittleEndian" header_type="UInt64">
	 <UnstructuredGrid>
		 <FieldData> 
			 <DataArray type = "Float64" Name = "TimeValue" NumberOfTuples = "1" format = "ascii" RangeMin = "9.000" RangeMax = "9.000"> 
			 9.000 
			 </DataArray > 
		 </FieldData> 
		 <Piece NumberOfPoints="1000" NumberOfCells="441">
			 <PointData Scalars="scalars">
				 <DataArray type="Float64" NumberOfComponents="3" Name="Velocity" format="ascii">
-0.823031 0.350422 0
-0.878656 0.417667 0.102939
-0.91607 0.504602 0.199506
-0.912301 0.573344 0.288109
-0.885504 0.62468 0.365821
-0.848933 0.662975 0.432596
-0.810094 0.69172 0.489134
-0.773499 0.713157 0.53578
-0.742933 0.728353 0.571643
-0.725219 0.736301 0.591466
-0.83701 0.289541 0
-0.86412 0.337179 0.245891
-0.838373 0.400941 0.429627
-0.75423 0.454116 0.576385
-0.641928 0.496223 0.693835
-0.521915 0.529507 0.788248
-0.405841 0.555888 0.864229
-0.301293 0.576556 0.924494
-0.216021 0.591834 0.969465
-0.167187 0.600066 0.993842
-0.795159 0.199336 0
-0.800497 0.207641 0.314686
-0.740162 0.215244 0.539568
-0.622232 0.219314 0.716426
-0.479757 0.221562 0.857787
-0.333571 0.222978 0.971876
-0.195175 0.223996 1.06421
-0.0720936 0.224789 1.13789
0.0275044 0.2254 1.19315
0.0842873 0.225745 1.22322
-0.7024 0.116996 0
-0.696766 0.0901086 0.284613
-0.636123 0.0452098 0.471222
-0.536231 0.000829649 0.612075
-0.423696 -0.0383226 0.723236
-0.313034 -0.0715743 0.812913
-0.211299 -0.0992848 0.885826
-0.122731 -0.121791 0.944362
-0.0521577 -0.138861 0.988545
-0.0123115 -0.148207 1.0127
-0.561209 0.071603 0
-0.54233 0.0364277 0.199171
-0.476556 -0.0194416 0.302496
-0.387995 -0.0727579 0.368608
-0.29776 -0.118822 0.416504
-0.214882 -0.157442 0.453657
-0.142514 -0.189358 0.483407
-0.0819897 -0.215138 0.507209
-0.0352213 -0.234621 0.525208
-0.00934324 -0.245266 0.535077
-0.375026 0.0619012 0
-0.328216 0.047013 0.133816
-0.220584 0.0254491 0.178982
-0.0913835 0.00764821 0.198101
0.0357495 -0.00536712 0.210112
0.151195 -0.0145158 0.220179
0.251704 -0.0208311 0.229494
0.335798 -0.0250956 0.238037
0.400883 -0.0278172 0.245227
0.436951 -0.0291208 0.24945
-0.154148 0.0571016 0
-0.0683268 0.0718205 0.138058
0.104841 0.0986736 0.198056
0.307321 0.129473 0.245116
0.509343 0.160725 0.293142
0.697192 0.190491 0.342279
0.864773 0.217657 0.390164
1.00811 0.241347 0.434082
1.12873 0.261579 0.472473
1.25635 0.283008 0.50987
0.0818973 0.0205455 0
0.198784 0.0459678 0.196892
0.407784 0.0876569 0.324301
0.637942 0.129788 0.448131
0.863023 0.168438 0.57559
1.07146 0.202623 0.701697
1.25781 0.232182 0.820746
1.41788 0.256958 0.927312
1.64579 0.292672 1.0763
1.78619 0.314623 1.16851
0.307204 -0.0617024 0
0.432096 -0.0577175 0.238601
0.613042 -0.0545431 0.401591
0.777402 -0.0563754 0.553852
0.917778 -0.0624247 0.703016
1.03622 -0.0709863 0.845558
1.13545 -0.0806091 0.977049
1.21687 -0.0901347 1.09294
1.3409 -0.103733 1.2772
1.40874 -0.111534 1.37967
0.495406 -0.169145 0
0.609554 -0.202843 0.201271
0.727159 -0.258816 0.312275
0.783754 -0.318999 0.393939
0.795229 -0.378161 0.46217
0.780105 -0.433673 0.521298
0.751249 -0.483991 0.572518
0.717373 -0.527742 0.615773
0.651952 -0.592636 0.683828
0.611308 -0.631179 0.724177
0.626449 -0.260334 0
0.724147 -0.321677 0.0838351
0.78741 -0.413918 0.0800756
0.764759 -0.501892 0.039454
0.687851 -0.580296 -0.0156601
0.584794 -0.648677 -0.0748756
0.473816 -0.707409 -0.132708
0.367363 -0.756495 -0.185418
0.20102 -0.823672 -0.257255
0.0909171 -0.866745 -0.303694
0.69111 -0.299276 0
0.776116 -0.363789 -0.0662797
0.813415 -0.452812 -0.186712
0.762969 -0.528587 -0.327939
0.661498 -0.589068 -0.470306
0.538294 -0.636904 -0.604908
0.411383 -0.674695 -0.727243
0.29274 -0.704152 -0.833764
0.11394 -0.741488 -0.97862
-0.00514498 -0.765213 -1.07301
0.689715 -0.274054 0
0.769462 -0.320085 -0.192955
0.806585 -0.378407 -0.388735
0.765556 -0.422125 -0.574016
0.680203 -0.452063 -0.739266
0.576565 -0.47192 -0.883062
0.47021 -0.48478 -1.00614
0.371189 -0.492812 -1.10863
0.219084 -0.500267 -1.24739
0.121298 -0.504302 -1.33415
0.626934 -0.196564 0
0.707297 -0.214882 -0.263338
0.758807 -0.237287 -0.491276
0.742291 -0.253928 -0.685745
0.684452 -0.265473 -0.845524
0.607484 -0.273323 -0.975198
0.525224 -0.278578 -1.07975
0.446819 -0.282 -1.16254
0.32419 -0.285159 -1.26919
0.245012 -0.286883 -1.33482
0.508751 -0.0890677 0
0.590856 -0.0800197 -0.27229
0.663286 -0.070629 -0.508845
0.67988 -0.0678964 -0.716421
0.657278 -0.0707053 -0.892075
0.612946 -0.0768843 -1.03831
0.559009 -0.0846889 -1.15872
0.504 -0.0928082 -1.25571
0.417931 -0.10469 -1.37578
0.357936 -0.112876 -1.45436
0.344715 0.0292315 0
0.422786 0.0636802 -0.223332
0.51546 0.10722 -0.44376
0.574895 0.137924 -0.662437
0.604946 0.15647 -0.866485
0.614886 0.166406 -1.04985
0.612358 0.170748 -1.21023
0.603029 0.17168 -1.34571
0.581872 0.170579 -1.5021
0.562984 0.169257 -1.61848
0.153711 0.147444 0
0.214112 0.206322 -0.114747
0.309164 0.290429 -0.265105
0.401777 0.364206 -0.441255
0.48408 0.42439 -0.622411
0.554835 0.472791 -0.795625
0.614505 0.511546 -0.953673
0.663463 0.542089 -1.09126
0.705411 0.568257 -1.21873
0.741748 0.592726 -1.34218
-0.0320754 0.259545 0
-0.00356242 0.338866 0.0517016
0.0602149 0.458359 0.0415799
0.143554 0.571174 -0.00815143
0.234439 0.670081 -0.0773525
0.324895 0.754866 -0.152888
0.409906 0.826545 -0.226975
0.48558 0.885642 -0.294371
0.547036 0.931071 -0.349729
0.588878 0.961673 -0.389419
-0.171705 0.357533 0
-0.17331 0.448425 0.257343
-0.156361 0.583373 0.426202
-0.117918 0.708986 0.544491
-0.0661587 0.817886 0.628963
-0.00864182 0.910424 0.6907
0.0491601 0.988119 0.73664
0.102935 1.05183 0.770838
0.147922 1.1006 0.79513
0.17412 1.12749 0.807875
-0.230934 0.428013 0
-0.237461 0.521422 0.478355
-0.235235 0.654316 0.821769
-0.220368 0.771894 1.09048
-0.197452 0.869246 1.30382
-0.170679 0.948793 1.47512
-0.143065 1.01344 1.6133
-0.116964 1.06505 1.72335
-0.0949009 1.10374 1.80582
-0.0819738 1.12478 1.85069
-0.199864 0.455031 0
-0.177323 0.542352 0.700197
-0.130249 0.663127 1.20336
-0.0752216 0.766512 1.59625
-0.0207208 0.84952 1.90623
0.0296602 0.915503 2.15291
0.0744449 0.967841 2.34997
0.112678 1.00877 2.50541
0.142792 1.03893 2.62093
0.159689 1.05513 2.68339
-0.0963285 0.429353 0
-0.0269693 0.496736 0.899811
0.100097 0.588161 1.54463
0.239056 0.665863 2.04699
0.372128 0.728533 2.44174
0.492557 0.778858 2.75419
0.597975 0.819262 3.00223
0.686913 0.851241 3.19665
0.756329 0.875063 3.34033
0.798606 0.888937 3.42431
0.0508401 0.359048 0
0.154901 0.390693 1.02948
0.334518 0.427801 1.76047
0.525855 0.455567 2.33155
0.70811 0.476585 2.78399
0.873415 0.493211 3.14545
1.01877 0.506728 3.43499
1.142 0.517696 3.66375
1.25577 0.527439 3.86002
1.36462 0.536375 4.03543
0.222426 0.268707 0
0.338913 0.262479 1.05549
0.514393 0.24029 1.7766
0.681631 0.210034 2.32938
0.830151 0.178999 2.7656
0.959037 0.150407 3.11529
1.06914 0.125419 3.39722
1.16069 0.104526 3.62162
1.26223 0.0845255 3.85141
1.34301 0.0703824 4.02609
0.412948 0.18414 0
0.545779 0.154317 1.00438
0.712901 0.0979782 1.64342
0.838558 0.0352527 2.1044
0.926352 -0.0253704 2.45307
0.986883 -0.0805247 2.72466
1.02848 -0.128965 2.93938
1.05669 -0.169922 3.10801
1.086 -0.215731 3.30277
1.10563 -0.247029 3.43819
0.61731 0.117906 0
0.803047 0.0789714 0.930083
1.02753 0.0158895 1.47758
1.18053 -0.047586 1.8377
1.27031 -0.105838 2.08678
1.31636 -0.157462 2.2656
1.33435 -0.202206 2.39715
1.33403 -0.243449 2.50479
1.31539 -0.301708 2.65673
1.30251 -0.333215 2.7362
0.815948 0.0689887 0
1.09917 0.0246266 0.85839
1.46776 -0.0385337 1.33946
1.7474 -0.0931825 1.63495
1.9371 -0.136982 1.8232
2.05907 -0.171597 1.94629
2.13365 -0.198883 2.02801
2.19922 -0.246413 2.14689
2.23893 -0.283087 2.23313
2.25614 -0.302482 2.27677
0.972852 0.0314568 0
1.37162 -0.0204162 0.778993
1.92621 -0.0924708 1.2063
2.38776 -0.150835 1.46972
2.73812 -0.192963 1.64303
2.997 -0.221987 1.76278
3.28631 -0.256469 1.90333
3.55146 -0.28844 2.03612
3.7349 -0.309658 2.12905
3.82911 -0.320196 2.17737
1.0481 -0.000455515 0
1.52916 -0.0555886 0.677596
2.22091 -0.135806 1.03311
2.8238 -0.205199 1.25702
3.3069 -0.259087 1.42001
3.68744 -0.299432 1.55104
4.28671 -0.35937 1.77342
4.73683 -0.402756 1.94822
5.05876 -0.432636 2.07916
5.22839 -0.447911 2.15067
1.0163 -0.0326641 0
1.5097 -0.0799174 0.568345
2.23223 -0.149438 0.836319
2.88083 -0.213795 0.991841
3.42001 -0.269459 1.10591
3.89117 -0.320307 1.21065
4.61758 -0.40382 1.38153
5.1742 -0.4685 1.52223
5.57973 -0.516038 1.63197
5.79638 -0.541586 1.6936
0.880372 -0.0705494 0
1.32453 -0.103341 0.479799
1.99645 -0.14769 0.679015
2.62976 -0.189323 0.764374
3.18441 -0.229 0.804277
3.6607 -0.266925 0.826794
4.4249 -0.342764 0.830267
5.05629 -0.407927 0.833519
5.52449 -0.457692 0.837822
5.77776 -0.485189 0.841057
0.672278 -0.117031 0
1.03733 -0.138165 0.421832
1.6263 -0.160919 0.589454
2.22623 -0.17965 0.634547
2.78783 -0.198445 0.617512
3.29587 -0.218448 0.57019
4.00216 -0.254228 0.439992
4.71289 -0.293464 0.289093
5.24679 -0.324392 0.171923
5.53813 -0.341857 0.106646
0.438953 -0.172432 0
0.716593 -0.189554 0.381782
1.20323 -0.204213 0.544776
1.73965 -0.211406 0.586428
2.26987 -0.21574 0.55636
2.76688 -0.219489 0.486587
3.30238 -0.222879 0.366757
4.03754 -0.224967 0.148891
4.5924 -0.227244 -0.0220779
4.89609 -0.228772 -0.118093
0.223822 -0.235003 0
0.412386 -0.253759 0.341832
0.765786 -0.269934 0.5086
1.17516 -0.274947 0.573213
1.59088 -0.272754 0.573896
1.98616 -0.266674 0.537158
2.34619 -0.258823 0.481004
2.83057 -0.239966 0.363994
3.2967 -0.219223 0.23765
3.55152 -0.207791 0.166315
0.0571032 -0.302333 0
0.163081 -0.324633 0.294696
0.367011 -0.344591 0.464419
0.605965 -0.350707 0.562663
0.848899 -0.347142 0.615082
1.07928 -0.338035 0.638957
1.28834 -0.326277 0.645606
1.46966 -0.313938 0.642528
1.70853 -0.291166 0.624316
1.86363 -0.275373 0.610039
-0.0441832 -0.373417 0
0.00207845 -0.403753 0.237393
0.0872992 -0.43444 0.404411
0.183078 -0.450027 0.531051
0.277384 -0.454885 0.628714
0.364665 -0.453426 0.705343
0.442392 -0.448603 0.766106
0.508827 -0.442377 0.813901
0.561179 -0.436307 0.849422
0.605663 -0.429785 0.878447
-0.075257 -0.446006 0
-0.0513442 -0.495529 0.152304
-0.0148566 -0.556 0.292155
0.0194467 -0.60128 0.419101
0.0489463 -0.633842 0.530203
0.0735777 -0.657563 0.625968
0.0938256 -0.675132 0.707519
0.110078 -0.688154 0.775243
0.122284 -0.69737 0.827634
0.12892 -0.702194 0.856726
-0.0458274 -0.509031 0
-0.00393903 -0.589001 0.00749919
0.0626646 -0.699235 0.0614774
0.128531 -0.794989 0.127679
0.18806 -0.874086 0.191798
0.240094 -0.939142 0.249405
0.284645 -0.992571 0.299336
0.321682 -1.03573 0.34109
0.350306 -1.06843 0.373454
0.373233 -1.09526 0.399856
0.0194859 -0.539887 0
0.107148 -0.647175 -0.213897
0.258171 -0.802938 -0.326119
0.418771 -0.94464 -0.401409
0.571664 -1.0652 -0.4595
0.71036 -1.1661 -0.507322
0.832374 -1.2498 -0.54755
0.935867 -1.31776 -0.580998
1.05641 -1.39232 -0.619304
1.14504 -1.4458 -0.647311
0.0877653 -0.514229 0
0.2231 -0.621453 -0.474076
0.459782 -0.775789 -0.793313
0.713233 -0.913743 -1.04679
0.954757 -1.02855 -1.25615
1.17354 -1.12246 -1.43096
1.36559 -1.19867 -1.57667
1.54458 -1.2645 -1.70603
1.79917 -1.34964 -1.87661
1.93697 -1.39507 -1.96841
0.128296 -0.422935 0
0.287044 -0.491719 -0.680981
0.55811 -0.579811 -1.14379
0.839977 -0.647816 -1.50314
1.10163 -0.696675 -1.78923
1.33356 -0.731311 -2.01887
1.53359 -0.75578 -2.2033
1.745 -0.776906 -2.38243
1.99952 -0.799643 -2.58462
2.13683 -0.811227 -2.69232
0.120179 -0.281115 0
0.268587 -0.29204 -0.757137
0.510249 -0.287171 -1.22511
0.748512 -0.264146 -1.55269
0.959799 -0.232647 -1.79005
1.1402 -0.198977 -1.96511
1.29113 -0.166561 -2.09534
1.42506 -0.135069 -2.19949
1.60378 -0.092528 -2.32886
1.69964 -0.0691392 -2.39623
0.0548727 -0.120377 0
0.168204 -0.0848728 -0.701314
0.344105 -0.0145269 -1.06177
0.508473 0.0645316 -1.26406
0.647767 0.140115 -1.38028
0.762447 0.207707 -1.44679
0.855655 0.266004 -1.48352
0.92984 0.314472 -1.50213
1.01332 0.373444 -1.51494
1.06653 0.411952 -1.52112
-0.0646183 0.0286894 0
0.00271541 0.0834548 -0.572593
0.106575 0.170916 -0.793922
0.203265 0.256054 -0.862763
0.285624 0.330906 -0.863151
0.354258 0.394368 -0.833492
0.41094 0.447134 -0.792286
0.456831 0.489864 -0.749443
0.49226 0.523016 -0.710815
0.523228 0.556841 -0.667034
-0.225546 0.15027 0
-0.206951 0.202923 -0.43554
-0.172531 0.27476 -0.551143
-0.135382 0.336421 -0.533263
-0.0997845 0.38675 -0.463625
-0.0670851 0.427666 -0.377884
-0.0378314 0.460902 -0.292034
-0.0125715 0.487485 -0.214284
0.00756437 0.507464 -0.151105
0.0189671 0.51835 -0.11511
-0.406833 0.244353 0
-0.434333 0.291011 -0.319786
-0.466343 0.345155 -0.380737
-0.489636 0.384144 -0.332205
-0.506096 0.411944 -0.24211
-0.517834 0.432532 -0.140755
-0.526267 0.448275 -0.0420696
-0.53228 0.460406 0.0464073
-0.536359 0.469329 0.118064
-0.538419 0.474139 0.158865
-0.58154 0.315052 0
-0.643411 0.365051 -0.213393
-0.724808 0.420034 -0.246461
-0.794677 0.455815 -0.199632
-0.853532 0.478058 -0.120725
-0.903495 0.492098 -0.032391
-0.945905 0.501157 0.0542201
-0.981197 0.507055 0.132568
-1.0086 0.510774 0.196541
-1.02387 0.512562 0.233179
-0.722636 0.357543 0
-0.796835 0.419089 -0.0885255
-0.887649 0.491488 -0.0832965
-0.959203 0.542265 -0.0357764
-1.0157 0.575807 0.0281176
-1.06175 0.597931 0.095717
-1.09995 0.612606 0.160578
-1.13135 0.622284 0.21869
-1.1556 0.628387 0.265928
-1.16909 0.631299 0.292931
-0.810777 0.357906 0
-0.872318 0.426124 0.0643907
-0.924354 0.512973 0.139846
-0.940166 0.580297 0.216472
-0.934659 0.629568 0.287627
-0.919081 0.665603 0.35108
-0.899777 0.692145 0.406222
-0.880421 0.711594 0.452584
-0.863755 0.725168 0.488719
-0.853956 0.732187 0.508864
-0.838967 0.308023 0
-0.872889 0.362696 0.216131
-0.861117 0.435708 0.380821
-0.793977 0.496164 0.513904
-0.699358 0.543575 0.621191
-0.596387 0.580667 0.707885
-0.495971 0.609778 0.777928
-0.405136 0.632381 0.833655
-0.330872 0.648965 0.875337
-0.288289 0.657853 0.897967
-0.834066 0.333387 0
-0.913568 0.406714 0.0642484
-0.995184 0.509437 0.165362
-1.04059 0.599841 0.277075
-1.06153 0.675028 0.383927
-1.06854 0.737024 0.4802
-1.06807 0.787941 0.564062
-1.06397 0.829018 0.634492
-1.05882 0.860094 0.689254
-1.05529 0.877099 0.719716
-0.88022 0.290059 0
-0.937508 0.343711 0.226921
-0.967417 0.419425 0.45105
-0.945613 0.48677 0.668151
-0.894473 0.543368 0.866416
-0.830911 0.590466 1.04175
-0.765009 0.629447 1.19332
-0.703279 0.661094 1.32026
-0.651711 0.685155 1.41891
-0.621776 0.698365 1.4738
-0.857331 0.216787 0
-0.894716 0.229494 0.308956
-0.894076 0.241185 0.5858
-0.843752 0.246057 0.843048
-0.76828 0.246579 1.07371
-0.684485 0.244793 1.27586
-0.601953 0.241937 1.44976
-0.526843 0.238776 1.59501
-0.465188 0.235905 1.70773
-0.429749 0.234166 1.77041
-0.767359 0.150167 0
-0.786133 0.127877 0.287808
-0.770305 0.0852793 0.51947
-0.720223 0.0378527 0.721554
-0.656276 -0.00800557 0.895912
-0.590318 -0.0498377 1.0448
-0.528264 -0.0867187 1.17053
-0.473554 -0.118032 1.27413
-0.429641 -0.142601 1.35373
-0.404751 -0.156355 1.39772
-0.618584 0.118701 0
-0.612508 0.0906076 0.214836
-0.571359 0.0428412 0.360686
-0.510409 -0.00539714 0.474648
-0.446803 -0.0488733 0.566037
-0.38802 -0.0865452 0.639913
-0.33669 -0.118511 0.699646
-0.293862 -0.144882 0.747175
-0.260868 -0.165143 0.782711
-0.242657 -0.176334 0.801994
-0.424477 0.119946 0
-0.384544 0.114692 0.170221
-0.297117 0.107456 0.273991
-0.196164 0.10383 0.355634
-0.0996359 0.104151 0.42445
-0.0139007 0.107238 0.483026
0.0594403 0.111879 0.532516
0.119942 0.117076 0.57331
0.166255 0.12189 0.604645
0.191733 0.124849 0.621949
-0.201636 0.121563 0
-0.12642 0.144791 0.197588
0.00847461 0.182041 0.337706
0.151232 0.221361 0.471907
0.283863 0.259868 0.603418
0.400953 0.296065 0.728042
0.501444 0.328985 0.841897
0.584921 0.357705 0.941372
0.649315 0.380737 1.02112
0.699763 0.399095 1.08316
0.0322163 0.0856261 0
0.133288 0.115041 0.269013
0.287543 0.154522 0.472447
0.431188 0.186987 0.672383
0.553835 0.212252 0.870774
0.656101 0.231966 1.06061
0.740448 0.247476 1.23549
0.808572 0.259592 1.38936
0.871137 0.270612 1.53768
0.930483 0.281277 1.67685
0.258454 -0.00248715 0
0.374523 0.00209999 0.310958
0.520567 -0.00468116 0.517601
0.626641 -0.0265164 0.695067
0.696051 -0.057413 0.857614
0.739721 -0.0920125 1.00652
0.766366 -0.12668 1.14037
0.781891 -0.158748 1.25645
0.793853 -0.199364 1.39862
0.801 -0.229427 1.50292
0.456713 -0.122054 0
0.58217 -0.157103 0.268548
0.715615 -0.223697 0.385321
0.784971 -0.302005 0.435358
0.80586 -0.382503 0.453179
0.797737 -0.45979 0.454919
0.774256 -0.530728 0.448738
0.744585 -0.59286 0.439206
0.6839 -0.684755 0.422738
0.644353 -0.741521 0.411977
0.606913 -0.229964 0
0.737674 -0.294386 0.143358
0.865121 -0.395125 0.116774
0.919016 -0.493919 0.00560489
0.922016 -0.583163 -0.141484
0.896979 -0.661433 -0.298353
0.8588 -0.728775 -0.450555
0.815126 -0.78668 -0.59241
0.72154 -0.87733 -0.822137
0.66949 -0.926232 -0.948248
0.694173 -0.287661 0
0.825125 -0.355478 -0.0145332
0.949016 -0.449053 -0.17017
0.999652 -0.527729 -0.393205
1.00226 -0.58919 -0.635734
0.979682 -0.636556 -0.873241
0.945966 -0.672963 -1.09292
0.899435 -0.704886 -1.3203
0.819791 -0.744514 -1.63394
0.775627 -0.765333 -1.80512
0.711412 -0.281198 0
0.839292 -0.328941 -0.144714
0.960201 -0.387189 -0.373005
1.00947 -0.428445 -0.632079
1.01149 -0.454751 -0.886314
0.988474 -0.470648 -1.12052
0.954194 -0.479683 -1.32842
0.905977 -0.484499 -1.5421
0.829455 -0.487168 -1.82224
0.786805 -0.488032 -1.97414
0.657925 -0.221489 0
0.783767 -0.239754 -0.213288
0.910739 -0.257706 -0.461925
0.970427 -0.267216 -0.71607
0.981724 -0.27141 -0.952418
0.964976 -0.272748 -1.16286
0.933951 -0.272625 -1.34525
0.889273 -0.271507 -1.52207
0.812779 -0.268941 -1.76018
0.769628 -0.26745 -1.88878
0.53738 -0.130015 0
0.662926 -0.120643 -0.217551
0.81268 -0.103401 -0.453794
0.912467 -0.0872316 -0.695848
0.968844 -0.0748842 -0.925104
0.995582 -0.0662944 -1.13321
1.00359 -0.0606865 -1.3167
0.998159 -0.0568928 -1.49097
0.973271 -0.0524431 -1.73781
0.957984 -0.0503459 -1.87161
0.35867 -0.0241536 0
0.476099 0.0078934 -0.165835
0.650049 0.0574323 -0.355575
0.808222 0.103326 -0.563844
0.940181 0.141859 -0.772238
1.04744 0.173312 -0.969251
1.13356 0.198683 -1.14825
1.20321 0.219496 -1.30992
1.29405 0.250225 -1.56146
1.3423 0.266558 -1.6985
0.14053 0.0886739 0
0.225868 0.139377 -0.0649625
0.382984 0.218589 -0.159574
0.559482 0.296155 -0.277107
0.733392 0.366269 -0.40234
0.894607 0.427904 -0.52494
1.03847 0.481097 -0.638688
1.16168 0.525688 -0.738923
1.31491 0.581835 -0.874614
1.41704 0.619373 -0.967189
-0.0838673 0.206312 0
-0.0560918 0.272629 0.0763803
0.0206617 0.373622 0.116175
0.129704 0.470789 0.135071
0.251892 0.557789 0.142536
0.374479 0.633856 0.144203
0.489808 0.699283 0.143117
0.592319 0.75401 0.140922
0.675388 0.796563 0.138614
0.738908 0.828467 0.134259
-0.270489 0.321812 0
-0.299977 0.401628 0.248519
-0.322017 0.516891 0.431561
-0.319085 0.620808 0.581488
-0.298961 0.708483 0.7074
-0.269741 0.781389 0.814359
-0.237089 0.841572 0.905178
-0.205063 0.890277 0.980754
-0.177484 0.927196 1.03944
-0.16118 0.94742 1.07213
-0.380243 0.417366 0
-0.4374 0.508269 0.450178
-0.511534 0.635785 0.779276
-0.569403 0.746225 1.04349
-0.611394 0.835604 1.25907
-0.641489 0.907063 1.43664
-0.663028 0.964 1.58314
-0.678281 1.00868 1.70205
-0.688555 1.04171 1.79254
-0.693714 1.05949 1.84227
-0.397523 0.468826 0
-0.445565 0.56148 0.676732
-0.504666 0.691783 1.1677
-0.547829 0.805463 1.55553
-0.577032 0.898281 1.86507
-0.596461 0.973119 2.11406
-0.609289 1.03319 2.31488
-0.617609 1.08064 2.47458
-0.622718 1.11588 2.59408
-0.625088 1.13492 2.65899
-0.333865 0.460845 0
-0.352555 0.534678 0.89191
-0.361174 0.637005 1.54256
-0.349764 0.72644 2.0609
-0.325892 0.800547 2.47727
-0.296219 0.861494 2.8135
-0.26513 0.911435 3.08521
-0.235695 0.95164 3.30145
-0.210885 0.982 3.46326
-0.196397 0.998591 3.55112
-0.212449 0.401431 0
-0.203993 0.436934 1.03223
-0.175952 0.477058 1.77506
-0.132689 0.505075 2.36766
-0.0819269 0.524569 2.84766
-0.0294293 0.538778 3.23916
0.0210367 0.549547 3.55857
0.0666086 0.557814 3.81495
0.103964 0.56389 4.00812
0.12545 0.567168 4.11352
-0.0506152 0.318772 0
-0.020014 0.317504 1.06833
0.0225761 0.29713 1.79405
0.0610727 0.262712 2.35069
0.0947972 0.223698 2.79181
0.124313 0.185302 3.14735
0.149979 0.150044 3.43559
0.17175 0.119403 3.6662
0.188905 0.095034 3.83968
0.198555 0.0812945 3.93429
0.142712 0.240561 0
0.210109 0.222875 1.04147
0.287961 0.180136 1.68593
0.337996 0.124936 2.13509
0.365407 0.0667155 2.46328
0.378095 0.0106091 2.71085
0.381843 -0.0407176 2.90108
0.380547 -0.0854339 3.04687
0.377049 -0.121158 3.15296
0.373566 -0.145726 3.22287
0.356864 0.17708 0
0.495144 0.160275 1.01398
0.670912 0.129673 1.59372
0.801433 0.0950861 1.95251
0.888882 0.0603125 2.17941
0.944982 0.0272848 2.32477
0.979639 -0.00288607 2.41817
0.999887 -0.0292651 2.4773
1.00744 -0.0642407 2.53523
1.00854 -0.0897385 2.57325
0.569403 0.122751 0
0.813234 0.106767 1.00873
1.15128 0.0886406 1.57846
1.43377 0.0778348 1.91773
1.65078 0.0729005 2.11701
1.81411 0.0716625 2.22992
1.93622 0.0725396 2.2892
2.05794 0.0706037 2.33037
2.15994 0.0679946 2.35605
2.21285 0.0669304 2.36512
0.74494 0.068542 0
1.10439 0.0420061 0.997596
1.62198 0.0101076 1.57873
2.07245 -0.00940744 1.94405
2.43172 -0.0172508 2.17668
2.71184 -0.0168668 2.32522
2.98729 -0.00919704 2.44672
3.28877 0.00394866 2.56845
3.50372 0.0158692 2.64682
3.61669 0.0231411 2.68484
0.843979 0.00985114 0
1.28766 -0.0322076 0.943287
1.93219 -0.0914865 1.49758
2.4944 -0.140463 1.86267
2.94133 -0.176147 2.11717
3.28766 -0.200554 2.30232
3.73475 -0.223806 2.54921
4.12365 -0.241133 2.76586
4.39967 -0.251821 2.92008
4.54423 -0.256759 3.00124
0.838509 -0.0532111 0
1.30413 -0.103186 0.847313
1.9865 -0.172309 1.33391
2.58738 -0.230308 1.65633
3.0695 -0.275064 1.89117
3.44655 -0.308781 2.07428
3.97948 -0.357925 2.35383
4.42144 -0.398194 2.59398
4.73629 -0.426347 2.77111
4.90167 -0.440922 2.86679
0.727418 -0.117221 0
1.15292 -0.164866 0.74099
1.79889 -0.221308 1.16874
2.39965 -0.260426 1.4594
2.91251 -0.285697 1.67895
3.33973 -0.301979 1.8566
3.94694 -0.328934 2.09437
4.50256 -0.353262 2.31329
4.90853 -0.36989 2.47743
5.12579 -0.378391 2.56709
0.540645 -0.17799 0
0.887433 -0.219496 0.646241
1.45406 -0.260276 1.05003
2.03562 -0.279694 1.34954
2.58123 -0.28538 1.58896
3.07441 -0.284044 1.78748
3.71692 -0.280805 2.00279
4.43624 -0.277446 2.22253
4.97429 -0.273921 2.38723
5.26702 -0.271685 2.47704
0.326174 -0.23408 0
0.579978 -0.272993 0.559218
1.03654 -0.312924 0.948639
1.55459 -0.334847 1.26476
2.07884 -0.344883 1.52933
2.57903 -0.348474 1.75201
3.06692 -0.348507 1.94575
3.86053 -0.343417 2.19335
4.45991 -0.339061 2.37733
4.78815 -0.336523 2.47692
0.129762 -0.28663 0
0.290371 -0.327034 0.464637
0.604956 -0.377513 0.810323
0.985886 -0.417153 1.1024
1.38591 -0.447389 1.35088
1.77569 -0.470779 1.56094
2.13711 -0.489099 1.73674
2.57568 -0.504999 1.91926
3.07382 -0.518805 2.10701
3.34655 -0.526188 2.20818
-0.016641 -0.337274 0
0.0614305 -0.378346 0.361466
0.22374 -0.434135 0.634164
0.426103 -0.482693 0.86331
0.640341 -0.52309 1.05657
0.849096 -0.556469 1.21889
1.04215 -0.583908 1.35416
1.21185 -0.606036 1.46442
1.39601 -0.626306 1.57377
1.5483 -0.641007 1.65966
-0.0946917 -0.388325 0
-0.0747018 -0.429722 0.260698
-0.0305748 -0.483949 0.462114
0.025109 -0.529105 0.630275
0.0833484 -0.565303 0.770534
0.139055 -0.594382 0.887376
0.189615 -0.617793 0.984268
0.233322 -0.636384 1.06305
0.267997 -0.650276 1.12299
0.287524 -0.657816 1.15592
-0.0973031 -0.440981 0
-0.0974325 -0.489891 0.159066
-0.099861 -0.551362 0.302806
-0.105189 -0.599428 0.431075
-0.112753 -0.635623 0.541254
-0.121624 -0.66317 0.634491
-0.130939 -0.68439 0.712569
-0.139908 -0.70066 0.776476
-0.147605 -0.712499 0.825337
-0.152161 -0.718815 0.852253
-0.0313903 -0.488695 0
-0.00706235 -0.557038 0.0301673
0.0307331 -0.646503 0.105558
0.0674495 -0.719278 0.192577
0.100219 -0.775752 0.275876
0.128578 -0.819724 0.350538
0.152655 -0.8542 0.415243
0.172528 -0.881004 0.469371
0.187797 -0.900716 0.511341
0.197773 -0.913333 0.538964
0.0782178 -0.513179 0
0.163689 -0.604731 -0.153078
0.312545 -0.731992 -0.193415
0.472954 -0.842398 -0.189285
0.627472 -0.932693 -0.168209
0.769006 -1.00593 -0.141705
0.894499 -1.06519 -0.114909
1.00161 -1.11239 -0.0904836
1.13513 -1.16519 -0.0579913
1.22678 -1.20013 -0.0352851
0.192185 -0.49185 0
0.346562 -0.58874 -0.377348
0.618148 -0.72615 -0.579974
0.910031 -0.847879 -0.706117
1.18854 -0.949022 -0.790743
1.4409 -1.03197 -0.850328
1.66239 -1.09959 -0.893562
1.92509 -1.17226 -0.930994
2.20902 -1.24673 -0.963771
2.36284 -1.28656 -0.980853
0.268813 -0.413898 0
0.458058 -0.482601 -0.570905
0.780036 -0.573824 -0.910069
1.11134 -0.649159 -1.14364
1.41451 -0.708221 -1.31381
1.67922 -0.754435 -1.44168
1.90429 -0.790692 -1.53932
2.21036 -0.838003 -1.65083
2.4834 -0.879446 -1.74487
2.63024 -0.901389 -1.79445
0.27815 -0.29033 0
0.446989 -0.310218 -0.658372
0.715227 -0.323592 -1.02951
0.970521 -0.322614 -1.27037
1.18792 -0.313802 -1.43659
1.36588 -0.301732 -1.55554
1.50877 -0.288927 -1.64241
1.66566 -0.274649 -1.73089
1.82552 -0.260743 -1.81836
1.91016 -0.2529 -1.86385
0.210271 -0.148084 0
0.319937 -0.126792 -0.630552
0.477217 -0.0805986 -0.933216
0.610623 -0.0259805 -1.09202
0.712608 0.0278414 -1.17823
0.788032 0.077027 -1.22505
0.842989 0.120175 -1.24946
0.882249 0.156542 -1.26083
0.925819 0.204152 -1.27383
0.950001 0.232222 -1.28016
0.0742735 -0.0140623 0
0.115282 0.0250534 -0.536885
0.16151 0.0889873 -0.735397
0.189284 0.153175 -0.790213
0.202821 0.211384 -0.781929
0.207726 0.262166 -0.746554
0.207831 0.305472 -0.701269
0.205545 0.341316 -0.655348
0.202519 0.368907 -0.615547
0.192946 0.396481 -0.574055
-0.109041 0.098214 0
-0.128029 0.136208 -0.43483
-0.170349 0.186927 -0.555926
-0.221175 0.229786 -0.54553
-0.270993 0.264535 -0.482147
-0.3157 0.292739 -0.400441
-0.353984 0.31567 -0.316522
-0.385428 0.334045 -0.239106
-0.409335 0.347883 -0.175318
-0.422406 0.355436 -0.138639
-0.31435 0.190053 0
-0.378158 0.224858 -0.349933
-0.484656 0.261895 -0.441138
-0.594526 0.28463 -0.423494
-0.696244 0.297551 -0.362245
-0.786204 0.304679 -0.286403
-0.863599 0.308437 -0.209531
-0.92801 0.310233 -0.139041
-0.977756 0.310918 -0.0811406
-1.00531 0.311064 -0.0479007
-0.515682 0.266001 0
-0.606077 0.309298 -0.264786
-0.746949 0.356186 -0.34332
-0.887397 0.385332 -0.343411
-1.017 0.401844 -0.311207
-1.1328 0.410713 -0.267275
-1.2339 0.415072 -0.221276
-1.31934 0.416813 -0.178446
-1.38623 0.417141 -0.142976
-1.42364 0.416976 -0.122528
-0.688641 0.320308 0
-0.785165 0.381989 -0.144696
-0.921204 0.459605 -0.177653
-1.04587 0.519841 -0.165367
-1.15544 0.564578 -0.136141
-1.25083 0.598062 -0.102093
-1.333 0.623411 -0.0686278
-1.40196 0.642527 -0.0385561
-1.45579 0.656235 -0.0142061
-1.48586 0.66347 -0.000352636
-0.813065 0.336706 0
-0.89736 0.410365 0.0209697
-0.992035 0.512218 0.0910216
-1.05563 0.600576 0.177299
-1.09665 0.673178 0.26279
-1.12362 0.732465 0.34101
-1.14182 0.780786 0.409669
-1.15423 0.819534 0.467566
-1.16242 0.848714 0.512682
-1.16651 0.864633 0.537805
-0.875367 0.304342 0
-0.937993 0.365356 0.192821
-0.978963 0.452073 0.391016
-0.97061 0.529709 0.585715
-0.933399 0.595255 0.764405
-0.883206 0.649973 0.922712
-0.829544 0.695362 1.05963
-0.778505 0.732269 1.1743
-0.735501 0.760361 1.26339
-0.710423 0.775794 1.31295
				 </DataArray>
			 </PointData>
			 <Points>
				 <DataArray type="Float64" NumberOfComponents="3" format="ascii">
   -882.6850    -882.6850     -76.4000
   -882.6850    -882.6850     -45.1366
   -882.6850    -882.6850     -29.6380
   -882.6850    -882.6850     -20.5472
   -882.6850    -882.6850     -14.6302
   -882.6850    -882.6850     -10.5083
   -882.6850    -882.6850      -7.5159
   -882.6850    -882.6850      -5.3153
   -882.6850    -882.6850      -3.7606
   -882.6850    -882.6850      -2.9464
   -882.6850    -846.6570     -76.4000
   -882.6850    -846.6570     -44.8703
   -882.6850    -846.6570     -29.2397
   -882.6850    -846.6570     -20.0715
   -882.6850    -846.6570     -14.1040
   -882.6850    -846.6570      -9.9471
   -882.6850    -846.6570      -6.9292
   -882.6850    -846.6570      -4.7098
   -882.6850    -846.6570      -3.1419
   -882.6850    -846.6570      -2.3208
   -882.6850    -810.6291     -76.4000
   -882.6850    -810.6291     -44.7028
   -882.6850    -810.6291     -28.9890
   -882.6850    -810.6291     -19.7721
   -882.6850    -810.6291     -13.7729
   -882.6850    -810.6291      -9.5939
   -882.6850    -810.6291      -6.5600
   -882.6850    -810.6291      -4.3288
   -882.6850    -810.6291      -2.7525
   -882.6850    -810.6291      -1.9270
   -882.6850    -774.6011     -76.4000
   -882.6850    -774.6011     -44.6603
   -882.6850    -774.6011     -28.9255
   -882.6850    -774.6011     -19.6962
   -882.6850    -774.6011     -13.6890
   -882.6850    -774.6011      -9.5043
   -882.6850    -774.6011      -6.4663
   -882.6850    -774.6011      -4.2322
   -882.6850    -774.6011      -2.6538
   -882.6850    -774.6011      -1.8272
   -882.6850    -738.5732     -76.4000
   -882.6850    -738.5732     -44.5222
   -882.6850    -738.5732     -28.7190
   -882.6850    -738.5732     -19.4496
   -882.6850    -738.5732     -13.4162
   -882.6850    -738.5732      -9.2134
   -882.6850    -738.5732      -6.1622
   -882.6850    -738.5732      -3.9183
   -882.6850    -738.5732      -2.3331
   -882.6850    -738.5732      -1.5029
   -882.6850    -702.5452     -76.4000
   -882.6850    -702.5452     -44.1024
   -882.6850    -702.5452     -28.0910
   -882.6850    -702.5452     -18.6995
   -882.6850    -702.5452     -12.5867
   -882.6850    -702.5452      -8.3285
   -882.6850    -702.5452      -5.2371
   -882.6850    -702.5452      -2.9637
   -882.6850    -702.5452      -1.3576
   -882.6850    -702.5452      -0.5164
   -882.6850    -666.5172     -76.4000
   -882.6850    -666.5172     -43.4742
   -882.6850    -666.5172     -27.1514
   -882.6850    -666.5172     -17.5772
   -882.6850    -666.5172     -11.3455
   -882.6850    -666.5172      -7.0045
   -882.6850    -666.5172      -3.8530