<?xml version="1.0"?>
<VTKFile type="UnstructuredGrid" version="1.0" byte_order="LittleEndian" header_type="UInt64">
	 <UnstructuredGrid>
		 <FieldData> 
			 <DataArray type = "Float64" Name = "TimeValue" NumberOfTuples = "1" format = "ascii" RangeMin = "8.000" RangeMax = "8.000"> 
			 8.000 
			 </DataArray > 
		 </FieldData> 
		 <Piece NumberOfPoints="1000" NumberOfCells="441">
			 <PointData Scalars="scalars">
				 <DataArray type="Float64" NumberOfComponents="3" Name="Velocity" format="ascii">
-0.783567 0.268093 0
-0.874569 0.335319 -0.0494694
-0.974761 0.431738 -0.00701243
-1.03868 0.518786 0.0712996
-1.07634 0.592721 0.158148
-1.09795 0.654703 0.242004
-1.10993 0.706272 0.317987
-1.11613 0.748297 0.383404
-1.11892 0.780333 0.4351
-1.11979 0.797948 0.464132
-0.876867 0.256783 0
-0.956123 0.309418 0.104618
-1.02167 0.384694 0.268333
-1.03569 0.452501 0.453559
-1.01728 0.510014 0.634854
-0.982542 0.558191 0.801395
-0.941439 0.598259 0.948784
-0.900399 0.630904 1.07417
-0.86486 0.655789 1.17263
-0.843825 0.669473 1.22777
-0.887093 0.219413 0
-0.950463 0.237585 0.191802
-0.992309 0.256906 0.412239
-0.984993 0.268204 0.64031
-0.949004 0.273727 0.85561
-0.900096 0.275774 1.04981
-0.847668 0.275852 1.21989
-0.797728 0.274912 1.36365
-0.755608 0.27363 1.4761
-0.73103 0.272727 1.53893
-0.813944 0.186499 0
-0.85331 0.175393 0.190938
-0.870797 0.14798 0.379548
-0.854012 0.113162 0.561418
-0.820265 0.07711 0.72631
-0.780708 0.0428517 0.871095
-0.741231 0.0118301 0.995487
-0.705261 -0.0149967 1.09915
-0.675811 -0.0363158 1.17941
-0.658932 -0.0483429 1.22396
-0.672459 0.182032 0
-0.676302 0.168375 0.148784
-0.651096 0.140196 0.272232
-0.60606 0.108428 0.380911
-0.556829 0.0780336 0.473787
-0.51053 0.0507071 0.551712
-0.469792 0.0269357 0.616235
-0.435687 0.00697671 0.66841
-0.409377 -0.00854954 0.707852
-0.394851 -0.017192 0.729399
-0.4873 0.202039 0
-0.449681 0.212127 0.139242
-0.367169 0.225486 0.244397
-0.272628 0.239165 0.339013
-0.182974 0.25334 0.42377
-0.103886 0.26751 0.498018
-0.036598 0.281038 0.561689
0.0186755 0.293272 0.614616
0.06085 0.303334 0.655471
0.0840031 0.309139 0.678094
-0.281942 0.215001 0
-0.210769 0.252668 0.200665
-0.0859092 0.308113 0.363068
0.042605 0.361574 0.525022
0.159166 0.410598 0.683555
0.260117 0.454682 0.832447
0.345465 0.493585 0.967273
0.415541 0.52683 1.08422
0.469125 0.553114 1.17745
0.498617 0.567916 1.23017
-0.0708092 0.184098 0
0.0178643 0.226417 0.301525
0.148371 0.28054 0.538973
0.263479 0.322652 0.769418
0.356389 0.353756 0.992944
0.429941 0.376889 1.20291
0.487897 0.394324 1.39374
0.532923 0.407446 1.56002
0.565935 0.416855 1.69316
0.596678 0.425392 1.81546
0.138914 0.0944359 0
0.237745 0.111554 0.370233
0.356874 0.118736 0.61784
0.435836 0.105947 0.823209
0.479945 0.0804951 1.00397
0.500796 0.0491203 1.16447
0.50737 0.0163349 1.30553
0.505837 -0.0146713 1.4259
0.500463 -0.0419364 1.52515
0.493008 -0.0722598 1.63283
0.338083 -0.0349388 0
0.452205 -0.0574336 0.355687
0.574899 -0.109201 0.522781
0.639975 -0.17681 0.602007
0.661046 -0.249803 0.636033
0.655605 -0.321682 0.646217
0.636003 -0.388614 0.643894
0.610542 -0.447753 0.635581
0.569535 -0.518586 0.621177
0.534334 -0.573814 0.609025
0.50953 -0.162549 0
0.644439 -0.216532 0.257103
0.789887 -0.304428 0.291137
0.871926 -0.393271 0.212239
0.907194 -0.474923 0.081313
0.914737 -0.547249 -0.0684174
0.907269 -0.609843 -0.218472
0.892848 -0.662337 -0.356755
0.844747 -0.745467 -0.583544
0.816468 -0.791792 -0.712359
0.631127 -0.249626 0
0.783424 -0.311716 0.117903
0.951535 -0.398139 0.0295409
1.05485 -0.47105 -0.159882
1.1108 -0.52789 -0.387215
1.13849 -0.57146 -0.619481
1.15013 -0.604713 -0.839193
1.14614 -0.636615 -1.09396
1.12622 -0.673014 -1.41256
1.11459 -0.692081 -1.58689
0.683385 -0.279504 0
0.843383 -0.32692 -0.00522457
1.02106 -0.384226 -0.163875
1.13055 -0.424192 -0.389067
1.18911 -0.449143 -0.628838
1.21664 -0.463774 -0.859022
1.22628 -0.471696 -1.06836
1.21668 -0.475642 -1.32954
1.19535 -0.47729 -1.61591
1.18255 -0.4776 -1.77174
0.655223 -0.25864 0
0.814893 -0.28177 -0.0776466
0.998105 -0.303792 -0.255293
1.11438 -0.31444 -0.472351
1.17676 -0.318083 -0.690915
1.20433 -0.318112 -0.894517
1.2109 -0.316433 -1.07619
1.19477 -0.312609 -1.29743
1.1648 -0.307616 -1.53967
1.14666 -0.304781 -1.67112
0.546047 -0.203122 0
0.700017 -0.204792 -0.0968655
0.897678 -0.198245 -0.260497
1.04686 -0.186813 -0.456128
1.14895 -0.175203 -0.655622
1.2162 -0.165171 -0.844685
1.25919 -0.157086 -1.01611
1.28773 -0.14852 -1.22125
1.30718 -0.139195 -1.45716
1.31584 -0.134328 -1.58564
0.365604 -0.12405 0
0.501385 -0.110737 -0.0756097
0.708575 -0.0830359 -0.198129
0.903831 -0.0515887 -0.351714
1.07235 -0.0214878 -0.515532
1.21363 0.0054773 -0.676212
1.33023 0.0288092 -0.825686
1.44314 0.0532172 -0.991959
1.57437 0.0840009 -1.20763
1.6446 0.100587 -1.32554
0.134589 -0.0222784 0
0.225518 0.00358148 -0.0238669
0.394771 0.0492988 -0.0761738
0.586765 0.0992047 -0.14974
0.777235 0.147912 -0.23248
0.954643 0.193107 -0.315905
1.11349 0.233661 -0.394731
1.24988 0.268638 -0.465038
1.43545 0.317546 -0.571916
1.54997 0.347871 -0.639068
-0.113907 0.10438 0
-0.0935795 0.146502 0.0585543
-0.0271307 0.212155 0.096702
0.0729956 0.277012 0.123716
0.187782 0.336425 0.144304
0.304184 0.389343 0.161055
0.414319 0.435535 0.175178
0.512532 0.474619 0.187063
0.59227 0.505274 0.196457
0.652037 0.527624 0.201411
-0.337706 0.247712 0
-0.387262 0.311747 0.182193
-0.438991 0.403507 0.322323
-0.463713 0.48534 0.441905
-0.467777 0.553661 0.545799
-0.459394 0.609958 0.636428
-0.444509 0.656081 0.714954
-0.427271 0.69318 0.781301
-0.411161 0.721168 0.833392
-0.401239 0.736451 0.862615
-0.498016 0.382047 0
-0.589312 0.468542 0.360356
-0.712906 0.590062 0.62687
-0.815277 0.695312 0.842265
-0.894691 0.780407 1.01874
-0.955832 0.848347 1.16455
-1.00297 0.9024 1.28514
-1.03893 0.944762 1.38321
-1.06491 0.976034 1.45795
-1.07867 0.992856 1.49907
-0.574639 0.472255 0
-0.673115 0.568952 0.587125
-0.805474 0.705884 1.01659
-0.914472 0.826268 1.35713
-0.998725 0.925252 1.62932
-1.06345 1.00557 1.84837
-1.11329 1.0704 2.02504
-1.15128 1.12185 2.16553
-1.17871 1.16022 2.27063
-1.19325 1.18101 2.3277
-0.569749 0.494815 0
-0.654357 0.575821 0.814213
-0.760341 0.688364 1.41144
-0.838505 0.786817 1.88905
-0.891249 0.868372 2.27383
-0.92586 0.9354 2.5853
-0.948151 0.990289 2.83752
-0.962084 1.03445 3.0386
-0.970231 1.06779 3.18928
-0.973821 1.086 3.27118
-0.496504 0.456126 0
-0.562824 0.499212 0.969397
-0.644877 0.549112 1.6651
-0.703411 0.584781 2.21899
-0.740583 0.60987 2.66715
-0.76268 0.628123 3.03253
-0.7748 0.641813 3.33062
-0.780541 0.652166 3.56992
-0.78247 0.659658 3.75028
-0.782644 0.663651 3.84871
-0.366484 0.387823 0
-0.410727 0.395835 1.02453
-0.473817 0.387447 1.71178
-0.529063 0.362733 2.23334
-0.573824 0.331245 2.64349
-0.609391 0.298702 2.97221
-0.637435 0.268016 3.23762
-0.659168 0.240914 3.4493
-0.675031 0.219132 3.60821
-0.683488 0.206775 3.69474
-0.18893 0.320614 0
-0.192858 0.317513 1.02614
-0.209663 0.294713 1.64873
-0.237239 0.256859 2.07463
-0.270079 0.213101 2.38105
-0.304097 0.16903 2.60928
-0.33671 0.127703 2.78283
-0.366047 0.0911471 2.91472
-0.390004 0.061659 3.01006
-0.403745 0.0448758 3.06069
0.021496 0.262893 0
0.0884996 0.268985 1.04328
0.172933 0.271211 1.63225
0.23292 0.266158 1.99319
0.269609 0.256403 2.22011
0.289594 0.244335 2.36512
0.298588 0.231616 2.45834
0.300799 0.219481 2.51757
0.299428 0.209182 2.55332
0.296729 0.202377 2.57175
0.238757 0.202994 0
0.404676 0.216465 1.10084
0.640208 0.241835 1.72948
0.841661 0.270565 2.11345
0.999578 0.298876 2.34937
1.12068 0.32506 2.49348
1.21288 0.348362 2.57963
1.28203 0.368268 2.62867
1.35364 0.392045 2.68126
1.39394 0.406115 2.70862
0.426374 0.12693 0
0.698456 0.128277 1.15928
1.09478 0.138568 1.85859
1.4433 0.157595 2.31904
1.72369 0.181729 2.62975
1.94412 0.207871 2.84313
2.11596 0.233809 2.99117
2.32404 0.273573 3.16962
2.49765 0.309757 3.31517
2.58915 0.329855 3.38938
0.545292 0.0317625 0
0.899178 0.00524097 1.15907
1.41542 -0.0293861 1.88046
1.86637 -0.0551991 2.38131
2.22477 -0.0715666 2.74463
2.50235 -0.0805694 3.01674
2.75176 -0.0843165 3.26476
3.07014 -0.0844254 3.59707
3.29606 -0.0828907 3.8348
3.41439 -0.0814355 3.9603
0.567295 -0.0730676 0
0.952874 -0.126118 1.08081
1.52088 -0.197989 1.75443
2.02199 -0.257041 2.23042
2.42375 -0.301892 2.58764
2.73737 -0.335304 2.86708
3.06656 -0.370624 3.17294
3.44508 -0.41237 3.53547
3.71436 -0.441542 3.80003
3.85568 -0.45665 3.94174
0.489464 -0.171499 0
0.850431 -0.23845 0.949838
1.40358 -0.321622 1.55023
1.92081 -0.382972 1.987
2.36301 -0.42518 2.32639
2.73117 -0.454064 2.60092
3.13144 -0.483813 2.88852
3.62789 -0.523014 3.23255
3.98985 -0.55002 3.48696
4.18327 -0.56389 3.62448
0.339185 -0.24976 0
0.634472 -0.318558 0.800375
1.12268 -0.398024 1.33813
1.62703 -0.450597 1.7578
2.10106 -0.482337 2.10175
2.52942 -0.500996 2.38966
2.94068 -0.513113 2.64686
3.58887 -0.532144 2.99209
4.07242 -0.544434 3.24914
4.33501 -0.550451 3.38862
0.162394 -0.303755 0
0.37428 -0.369389 0.64916
0.761516 -0.447786 1.12434
1.20493 -0.503646 1.52426
1.65538 -0.541391 1.86714
2.08582 -0.567199 2.16081
2.48024 -0.585227 2.41012
3.05251 -0.603468 2.71261
3.58655 -0.618367 2.98055
3.8786 -0.626048 3.12574
0.00364081 -0.338361 0
0.131125 -0.399672 0.498144
0.389314 -0.481014 0.88445
0.708541 -0.548968 1.22208
1.04739 -0.603379 1.51669
1.37954 -0.647051 1.77075
1.68868 -0.682232 1.98677
1.96203 -0.710217 2.16554
2.39073 -0.743951 2.40774
2.63131 -0.762393 2.54155
-0.105625 -0.361761 0
-0.0528914 -0.416158 0.354466
0.0684293 -0.492785 0.632161
0.228733 -0.561697 0.873323
0.403473 -0.620406 1.08177
0.576557 -0.669796 1.26008
0.738255 -0.710982 1.41075
0.881353 -0.744581 1.53487
0.996979 -0.770199 1.63018
1.11887 -0.793545 1.72371
-0.146414 -0.382241 0
-0.146943 -0.428633 0.23128
-0.133727 -0.492087 0.414109
-0.107007 -0.547517 0.569608
-0.0738853 -0.59375 0.701012
-0.0394687 -0.632073 0.811481
-0.0067215 -0.663699 0.90368
0.0224317 -0.689307 0.978983
0.0460017 -0.708731 1.03647
0.0594217 -0.719376 1.0681
-0.109271 -0.405773 0
-0.127654 -0.450131 0.12783
-0.157601 -0.506299 0.24601
-0.188365 -0.550791 0.351834
-0.21759 -0.584789 0.442541
-0.244513 -0.61103 0.519047
-0.26872 -0.6315 0.582904
-0.289719 -0.647365 0.635018
-0.306518 -0.659011 0.674769
-0.316052 -0.665259 0.69663
0.00203529 -0.430874 0
0.0110469 -0.484701 0.0210785
0.0236184 -0.552572 0.086955
0.0351626 -0.60529 0.164338
0.0452713 -0.644441 0.238613
0.0539551 -0.673745 0.305177
0.0612921 -0.695942 0.362816
0.0673197 -0.7127 0.410989
0.0719291 -0.724734 0.44831
0.0744649 -0.731095 0.469024
0.163696 -0.44521 0
0.241784 -0.515787 -0.118088
0.375352 -0.610301 -0.127369
0.518147 -0.688938 -0.0943985
0.655465 -0.75096 -0.0473528
0.781305 -0.799776 0.00203518
0.893006 -0.838313 0.0486235
0.988464 -0.868398 0.0896595
1.11081 -0.900779 0.143776
1.1935 -0.921465 0.180613
0.332553 -0.430808 0
0.494445 -0.509155 -0.292092
0.774095 -0.617965 -0.414419
1.07153 -0.712443 -0.463705
1.35402 -0.789791 -0.478305
1.60942 -0.852546 -0.47596
1.83335 -0.903299 -0.465629
2.13455 -0.962605 -0.434151
2.41868 -1.01581 -0.399273
2.57265 -1.04425 -0.379774
0.4586 -0.376685 0
0.670667 -0.43837 -0.45475
1.02563 -0.520644 -0.687119
1.38782 -0.589363 -0.820933
1.7182 -0.644071 -0.902132
2.00634 -0.687586 -0.952716
2.25358 -0.722603 -0.984483
2.64794 -0.776911 -1.00463
2.93857 -0.816241 -1.0165
3.09496 -0.837166 -1.0218
0.503006 -0.287908 0
0.699018 -0.314385 -0.544802
1.00401 -0.34044 -0.819974
1.29108 -0.353904 -0.976852
1.5345 -0.359335 -1.07174
1.73347 -0.360443 -1.13103
1.89315 -0.359369 -1.16853
2.11721 -0.361738 -1.20683
2.29191 -0.363256 -1.23318
2.38444 -0.363788 -1.24596
0.451112 -0.182491 0
0.580317 -0.176907 -0.546921
0.756986 -0.156079 -0.788593
0.900753 -0.126522 -0.899812
1.00709 -0.0950975 -0.948948
1.0834 -0.0652147 -0.96677
1.13735 -0.0383655 -0.968425
1.18188 -0.0108302 -0.961366
1.22519 0.0192282 -0.950391
1.24701 0.0356296 -0.942992
0.313101 -0.079726 0
0.363231 -0.0591656 -0.495878
0.409252 -0.022731 -0.673269
0.425668 0.0163092 -0.717019
0.422803 0.0532816 -0.703209
0.410006 0.0865134 -0.665357
0.393056 0.115469 -0.619259
0.375514 0.139816 -0.573398
0.349678 0.164845 -0.520461
0.326758 0.183407 -0.479438
0.114053 0.0106583 0
0.0984454 0.0316313 -0.436176
0.0472547 0.0591317 -0.568039
-0.0233187 0.0822911 -0.572266
-0.0970927 0.10124 -0.523952
-0.166107 0.11683 -0.456279
-0.227104 0.129684 -0.384774
-0.27851 0.140113 -0.317853
-0.318412 0.148047 -0.262244
-0.340542 0.152408 -0.230118
-0.117448 0.0906469 0
-0.178263 0.111148 -0.38707
-0.291037 0.130127 -0.509727
-0.415846 0.138675 -0.520499
-0.536095 0.140833 -0.484289
-0.645125 0.139684 -0.430102
-0.740522 0.136989 -0.371663
-0.820879 0.133774 -0.316436
-0.88348 0.13077 -0.270301
-0.91834 0.128931 -0.243573
-0.354897 0.164797 0
-0.44171 0.196003 -0.331251
-0.583569 0.228549 -0.454231
-0.730489 0.247329 -0.488948
-0.869256 0.256618 -0.485016
-0.995044 0.260356 -0.464612
-1.1059 0.260992 -0.438258
-1.20018 0.260014 -0.41155
-1.2743 0.258438 -0.38846
-1.31587 0.257284 -0.374858
-0.573752 0.228113 0
-0.670097 0.279796 -0.235618
-0.808577 0.346245 -0.321426
-0.937933 0.399307 -0.345102
-1.05315 0.439857 -0.342386
-1.15432 0.471024 -0.328856
-1.24197 0.495187 -0.311674
-1.31581 0.513791 -0.294498
-1.37359 0.527361 -0.279812
-1.40591 0.534608 -0.271225
-0.750086 0.264918 0
-0.843183 0.33154 -0.0891731
-0.952327 0.426 -0.076959
-1.03052 0.510261 -0.0246649
-1.08484 0.581146 0.0395642
-1.12347 0.640135 0.103832
-1.15165 0.688938 0.163026
-1.17235 0.728535 0.214423
-1.18693 0.758623 0.255227
-1.19456 0.775133 0.278196
-0.861696 0.262789 0
-0.94412 0.32139 0.0714988
-1.01707 0.406028 0.209374
-1.04073 0.483031 0.371936
-1.03266 0.548848 0.533268
-1.00804 0.604301 0.682357
-0.976324 0.65062 0.814686
-0.94356 0.688481 0.927424
-0.914691 0.71741 1.01603
-0.897454 0.733343 1.06567
-0.753186 0.226682 0
-0.872649 0.293442 -0.116995
-1.02883 0.394263 -0.107175
-1.15685 0.490465 -0.0466225
-1.25735 0.5759 0.0298249
-1.3365 0.650016 0.107283
-1.39915 0.713312 0.179217
-1.4482 0.76593 0.242061
-1.48446 0.806637 0.292185
-1.504 0.829233 0.320485
-0.880743 0.237869 0
-1.00233 0.291262 0.0404794
-1.15333 0.369144 0.184098
-1.26878 0.440729 0.369679
-1.35328 0.502404 0.560821
-1.4156 0.554673 0.741228
-1.4621 0.598524 0.903613
-1.49668 0.634486 1.04335
-1.52116 0.66203 1.15397
-1.53395 0.677222 1.21621
-0.915109 0.226181 0
-1.02533 0.249417 0.135289
-1.15979 0.275094 0.340362
-1.26095 0.290843 0.571029
-1.33432 0.29902 0.796538
-1.38826 0.302449 1.00376
-1.42853 0.303077 1.18733
-1.45857 0.302185 1.34366
-1.47993 0.3007 1.46658
-1.49114 0.299598 1.53546
-0.853056 0.216588 0
-0.932501 0.215744 0.153825
-1.02445 0.201748 0.337933
-1.08995 0.177325 0.52711
-1.13553 0.148661 0.702708
-1.16815 0.119538 0.858443
-1.19212 0.0920514 0.992853
-1.20986 0.0676154 1.1051
-1.22244 0.0478277 1.19208
-1.22905 0.0365368 1.24037
-0.715407 0.228263 0
-0.749596 0.227119 0.140425
-0.777905 0.215789 0.278193
-0.787814 0.197975 0.406628
-0.787804 0.178479 0.518111
-0.783378 0.159638 0.611793
-0.777346 0.142498 0.689081
-0.771184 0.127669 0.751238
-0.765872 0.115897 0.797966
-0.762757 0.109263 0.823383
-0.535729 0.256121 0
-0.525951 0.276447 0.158691
-0.497458 0.302213 0.295089
-0.462741 0.324852 0.420614
-0.429583 0.345111 0.531611
-0.400459 0.36342 0.627043
-0.375834 0.379801 0.707457
-0.355722 0.394003 0.773307
-0.340446 0.405371 0.823535
-0.332085 0.411827 0.851125
-0.341674 0.271451 0
-0.302938 0.31414 0.236085
-0.249731 0.371657 0.428775
-0.210699 0.421726 0.610868
-0.187161 0.464088 0.780269
-0.175086 0.50007 0.933545
-0.170543 0.530596 1.06869
-0.170539 0.555983 1.1837
-0.172738 0.575689 1.27415
-0.174749 0.586666 1.32488
-0.144137 0.241172 0
-0.0868286 0.286159 0.342204
-0.0270517 0.338646 0.593386
-0.00375879 0.373861 0.814073
-0.00989843 0.395289 1.01269
-0.0339534 0.407792 1.19009
-0.0669957 0.414751 1.34595
-0.102474 0.418308 1.47863
-0.134543 0.419838 1.5832
-0.15399 0.420268 1.64195
0.0573125 0.151395 0
0.140977 0.174146 0.420787
0.229907 0.187266 0.676267
0.270687 0.178384 0.858361
0.272957 0.155635 0.997928
0.25157 0.126323 1.10935
0.217839 0.0952216 1.19994
0.179929 0.0656151 1.27306
0.144921 0.0405985 1.32864
0.117777 0.0215581 1.36784
0.259126 0.018745 0
0.386275 0.00471294 0.427917
0.545888 -0.03421 0.6171
0.661839 -0.0882464 0.686692
0.737932 -0.147507 0.693945
0.786035 -0.206001 0.669923
0.815567 -0.260377 0.63178
0.832908 -0.308285 0.589789
0.842388 -0.370101 0.529258
0.846292 -0.41662 0.482469
0.444139 -0.118343 0
0.620857 -0.165789 0.352691
0.865974 -0.243769 0.427388
1.07898 -0.321745 0.359563
1.25531 -0.391917 0.225199
1.40128 -0.452668 0.065939
1.52229 -0.504137 -0.0954311
1.6473 -0.562815 -0.303382
1.78137 -0.631646 -0.558019
1.85374 -0.668591 -0.69805
0.585094 -0.221979 0
0.796379 -0.282078 0.226481
1.09381 -0.366756 0.186158
1.3592 -0.438794 0.015558
1.58547 -0.495167 -0.205762
1.77786 -0.538445 -0.436852
1.94096 -0.571494 -0.656755
2.16584 -0.615028 -1.02177
2.35421 -0.650126 -1.33777
2.45634 -0.668513 -1.51057
0.65536 -0.273785 0
0.876447 -0.322429 0.105476
1.17935 -0.382097 -0.00813325
1.43795 -0.425732 -0.222096
1.64787 -0.455636 -0.466785
1.81826 -0.476088 -0.708675
1.95695 -0.490191 -0.931813
2.15038 -0.506202 -1.3117
2.30063 -0.517687 -1.61641
2.38129 -0.523524 -1.78247
0.638333 -0.277013 0
0.851583 -0.30265 0.0309501
1.14339 -0.324322 -0.0999169
1.3885 -0.331764 -0.306873
1.58164 -0.331504 -0.536334
1.7328 -0.327991 -0.761692
1.85125 -0.323471 -0.969727
2.00297 -0.31437 -1.31365
2.12191 -0.306658 -1.59924
2.18496 -0.302445 -1.75513
0.531369 -0.244367 0
0.726183 -0.250318 0.00925855
1.0128 -0.240457 -0.0874644
1.27491 -0.216491 -0.242331
1.49761 -0.187596 -0.420071
1.68325 -0.158796 -0.600189
1.83646 -0.132394 -0.770784
2.04081 -0.091216 -1.04911
2.21267 -0.0553719 -1.29535
2.30485 -0.0359342 -1.43039
0.344769 -0.183892 0
0.503049 -0.180393 0.0213369
0.767268 -0.156987 -0.00614322
1.04287 -0.118479 -0.0666041
1.30275 -0.0740138 -0.145196
1.53732 -0.0291901 -0.230907
1.74312 0.0129049 -0.31614
2.00466 0.0712602 -0.445362
2.26488 0.131234 -0.582492
2.40604 0.164029 -0.658076
0.100149 -0.0932381 0
0.191379 -0.0856955 0.0431614
0.370032 -0.0632847 0.084856
0.580997 -0.0305436 0.123642
0.79588 0.00686155 0.157088
0.999651 0.0450042 0.184881
1.18446 0.081382 0.207501
1.34462 0.114081 0.225435
1.57801 0.163295 0.240631
1.71748 0.192971 0.249001
-0.169791 0.0329708 0
-0.16743 0.0517652 0.0725749
-0.13226 0.0800685 0.156155
-0.067861 0.107511 0.248747
0.00982809 0.132651 0.342299
0.0898485 0.155242 0.431515
0.165853 0.175192 0.513165
0.233595 0.192266 0.584587
0.288486 0.20579 0.641916
0.319803 0.213418 0.674484
-0.424503 0.187692 0
-0.504035 0.231541 0.139443
-0.607023 0.289738 0.261299
-0.688655 0.336791 0.376576
-0.750302 0.372499 0.483536
-0.797265 0.399481 0.580643
-0.833522 0.419957 0.66686
-0.861432 0.435378 0.740812
-0.88184 0.446401 0.799415
-0.892772 0.452201 0.832459
-0.62589 0.342358 0
-0.759145 0.417269 0.278536
-0.947933 0.520842 0.485496
-1.11477 0.608924 0.653696
-1.25349 0.678998 0.792105
-1.36775 0.734186 0.906788
-1.46151 0.777595 1.0018
-1.53712 0.811291 1.07914
-1.59431 0.835978 1.13811
-1.62561 0.849189 1.17057
-0.750205 0.45606 0
-0.906584 0.548578 0.488083
-1.12666 0.680338 0.844796
-1.3181 0.797333 1.12882
-1.47397 0.894653 1.35718
-1.59949 0.974541 1.54207
-1.70026 1.03973 1.69201
-1.77994 1.09197 1.81179
-1.83923 1.13125 1.90173
-1.8713 1.15264 1.9507
-0.790809 0.500663 0
-0.94867 0.581089 0.709023
-1.16923 0.692563 1.22889
-1.35834 0.789925 1.6482
-1.50942 0.870569 1.99011
-1.6286 0.936913 2.27033
-1.72234 0.991324 2.49985
-1.79504 1.03518 2.68466
-1.84824 1.06833 2.82428
-1.87668 1.08647 2.9006
-0.751416 0.481199 0
-0.895877 0.527718 0.866008
-1.10205 0.581258 1.47964
-1.28362 0.61846 1.9667
-1.43236 0.643334 2.36197
-1.55229 0.660276 2.68593
-1.64842 0.672081 2.95178
-1.72417 0.680368 3.1664
-1.78032 0.685973 3.32893
-1.8106 0.688813 3.41793
-0.640892 0.429221 0
-0.754198 0.447422 0.941135
-0.921072 0.453577 1.55645
-1.07466 0.441257 2.01375
-1.20617 0.419347 2.36831
-1.31655 0.393983 2.64984
-1.40817 0.368611 2.87574
-1.48254 0.345368 3.05517
-1.539 0.326235 3.18951
-1.56994 0.315226 3.26255
-0.47427 0.374285 0
-0.532628 0.388716 0.984161
-0.617086 0.393154 1.56774
-0.694858 0.381554 1.95569
-0.762376 0.360988 2.22672
-0.820085 0.336805 2.42299
-0.868866 0.312238 2.56843
-0.909113 0.289439 2.67645
-0.94008 0.27048 2.75306
-0.957209 0.259498 2.79321
-0.273744 0.322561 0
-0.254629 0.351738 1.05768
-0.214145 0.390273 1.65912
-0.166074 0.420954 2.03046
-0.117956 0.443525 2.26555
-0.0731721 0.459823 2.41685
-0.0331829 0.471511 2.51491
0.00106488 0.479769 2.57784
0.0281007 0.485302 2.61628
0.0432921 0.488065 2.63407
-0.0665723 0.260131 0
0.0423742 0.298333 1.17495
0.224882 0.360477 1.87154
0.413389 0.422818 2.31919
0.589148 0.479521 2.61249
0.746444 0.529218 2.80716
0.883651 0.571813 2.9371
0.999429 0.607236 3.023
1.10173 0.638483 3.08386
1.18889 0.665676 3.13066
0.116596 0.17153 0
0.313907 0.194748 1.28495
0.624843 0.234727 2.09135
0.925204 0.276606 2.64377
1.18989 0.315988 3.03099
1.41627 0.351488 3.30737
1.60677 0.382659 3.50702
1.77497 0.411908 3.66205
1.99045 0.455112 3.8518
2.10655 0.478504 3.94986
0.24323 0.0543546 0
0.511301 0.0425739 1.32376
0.918378 0.0278558 2.17399
1.28984 0.0164118 2.76951
1.59735 0.00812539 3.19669
1.8448 0.0023317 3.50939
2.04159 -0.0015898 3.74143
2.26624 -0.00209974 4.00776
2.47492 -0.000875426 4.25652
2.58548 -0.000112849 4.38645
0.28659 -0.0776082 0
0.586196 -0.127488 1.26491
1.03726 -0.192934 2.08164
1.44068 -0.244432 2.65773
1.76543 -0.281798 3.07551
2.01839 -0.308365 3.38579
2.21272 -0.327099 3.61993
2.46034 -0.350097 3.93561
2.66439 -0.368527 4.19965
2.7711 -0.377904 4.33841
0.240269 -0.200287 0
0.515656 -0.276196 1.12316
0.936818 -0.367977 1.87123
1.32305 -0.430143 2.42727
1.6432 -0.466332 2.85595
1.9004 -0.484811 3.19459
2.10419 -0.49209 3.4654
2.37166 -0.496699 3.81289
2.61368 -0.49868 4.12728
2.74148 -0.498533 4.29513
0.126956 -0.292267 0
0.332891 -0.376777 0.936405
0.660429 -0.474772 1.6112
0.981263 -0.53654 2.16832
1.26797 -0.568368 2.64175
1.5162 -0.580709 3.04699
1.72719 -0.581385 3.39228
1.94863 -0.575008 3.73776
2.2425 -0.564571 4.15764
2.40036 -0.557624 4.38486
-0.0105587 -0.346815 0
0.112899 -0.428878 0.739265
0.324673 -0.529389 1.32704
0.554185 -0.601763 1.86197
0.779398 -0.649798 2.3494
0.990159 -0.681079 2.78665
1.18085 -0.701264 3.17119
1.34649 -0.714037 3.49846
1.55899 -0.72517 3.87096
1.72072 -0.732413 4.13988
-0.129359 -0.371373 0
-0.0767809 -0.447569 0.547574
0.0291426 -0.55244 1.01389
0.161824 -0.643759 1.45941
0.305285 -0.719604 1.8761
0.448372 -0.782383 2.25505
0.583524 -0.834258 2.59079
0.704479 -0.876384 2.87769
0.803168 -0.908448 3.10412
0.88763 -0.93273 3.28108
-0.199606 -0.378162 0
-0.199984 -0.445322 0.369375
-0.181779 -0.545636 0.686707
-0.142317 -0.642128 0.987206
-0.0899109 -0.729264 1.26458
-0.0322074 -0.806146 1.51377
0.0253667 -0.872771 1.73231
0.0786252 -0.928815 1.91754
0.122986 -0.972568 2.06282
0.148746 -0.996999 2.14414
-0.204254 -0.378292 0
-0.23855 -0.432304 0.218749
-0.284127 -0.512176 0.399754
-0.320105 -0.588434 0.560306
-0.346398 -0.65695 0.700011
-0.365454 -0.717167 0.81976
-0.379335 -0.769184 0.920999
-0.389399 -0.812826 1.0044
-0.39636 -0.846826 1.06843
-0.399938 -0.865784 1.10378
-0.134585 -0.380248 0
-0.17653 -0.422308 0.105838
-0.243491 -0.477001 0.201516
-0.309952 -0.521912 0.283939
-0.370516 -0.557407 0.351406
-0.42408 -0.585592 0.405682
-0.47054 -0.608086 0.44899
-0.509652 -0.625836 0.482923
-0.540214 -0.639044 0.507927
-0.557293 -0.646194 0.52135
0.00732648 -0.386997 0
-0.0056242 -0.426402 0.0189167
-0.0297096 -0.470444 0.0801103
-0.0557545 -0.498358 0.152244
-0.0803139 -0.51395 0.221474
-0.102264 -0.521748 0.283423
-0.121302 -0.524849 0.336952
-0.13726 -0.525251 0.381587
-0.14966 -0.524346 0.416095
-0.156558 -0.52342 0.435217
0.200217 -0.392403 0
0.254739 -0.440362 -0.0719506
0.3428 -0.496427 -0.0311273
0.432888 -0.534898 0.0565111
0.517405 -0.559294 0.158469
0.593855 -0.574417 0.260035
0.661274 -0.583611 0.354249
0.71872 -0.588996 0.436858
0.781715 -0.590982 0.530639
0.830824 -0.590927 0.605008
0.400962 -0.383181 0
0.54085 -0.441573 -0.188858
0.773393 -0.51817 -0.196298
1.01274 -0.581561 -0.12396
1.23506 -0.632237 -0.0210716
1.43311 -0.673103 0.0890593
1.60502 -0.706292 0.194947
1.81566 -0.742248 0.343277
2.02723 -0.776311 0.500296
2.14179 -0.794628 0.586145
0.555748 -0.348179 0
0.751789 -0.404702 -0.319744
1.07165 -0.483318 -0.410449
1.39136 -0.554052 -0.40527
1.67889 -0.615394 -0.362121
1.92713 -0.668385 -0.30648
2.13916 -0.714461 -0.248809
2.46989 -0.789589 -0.131452
2.71321 -0.845466 -0.0429303
2.84401 -0.875764 0.00539829
0.620675 -0.286912 0
0.803589 -0.325676 -0.424237
1.08189 -0.378409 -0.592295
1.33982 -0.424793 -0.659827
1.55642 -0.464242 -0.687299
1.73221 -0.497751 -0.698788
1.87243 -0.52609 -0.704009
2.08109 -0.577036 -0.705019
2.23633 -0.615985 -0.705552
2.31839 -0.636948 -0.705925
0.578621 -0.209343 0
0.690184 -0.225402 -0.474193
0.8323 -0.243561 -0.674183
0.938849 -0.255249 -0.766508
1.01081 -0.261741 -0.813628
1.05701 -0.264762 -0.840415
1.08523 -0.265589 -0.857277
1.10628 -0.267545 -0.874699
1.12493 -0.271636 -0.895225
1.13334 -0.273499 -0.905967
0.4413 -0.128437 0
0.46756 -0.129146 -0.477729
0.465814 -0.12706 -0.671657
0.42797 -0.121202 -0.749014
0.372027 -0.112764 -0.774548
0.310297 -0.103026 -0.775969
0.249751 -0.0929922 -0.766224
0.194824 -0.0834911 -0.752102
0.131143 -0.0744137 -0.736223
0.0785774 -0.0682183 -0.724771
0.237156 -0.0515633 0
0.196511 -0.0463202 -0.462021
0.0935701 -0.0420519 -0.648057
-0.0380052 -0.0403736 -0.716941
-0.173211 -0.0398883 -0.731771
-0.300041 -0.0398346 -0.72091
-0.413292 -0.0398988 -0.698363
-0.50995 -0.0399659 -0.671983
-0.585907 -0.0400036 -0.647454
-0.628423 -0.0400143 -0.63243
-0.00372935 0.0226259 0
-0.0844909 0.0335224 -0.441394
-0.239185 0.0399959 -0.637059
-0.41344 0.0375248 -0.728806
-0.58306 0.0298913 -0.771185
-0.738022 0.0199348 -0.788538
-0.874448 0.00936585 -0.792802
-0.989962 -0.000687202 -0.790421
-1.08033 -0.00917733 -0.785452
-1.13079 -0.01414 -0.781642
-0.256886 0.0975171 0
-0.357425 0.123904 -0.399977
-0.527114 0.153014 -0.598365
-0.704929 0.171118 -0.714579
-0.872547 0.180901 -0.791141
-1.0235 0.185434 -0.845911
-1.15556 0.186818 -0.887116
-1.2671 0.186426 -0.918613
-1.3543 0.185251 -0.941687
-1.403 0.184292 -0.954101
-0.500854 0.167988 0
-0.611435 0.21797 -0.307434
-0.776811 0.287772 -0.454434
-0.934307 0.349251 -0.538434
-1.0744 0.400518 -0.593889
-1.19613 0.442903 -0.634528
-1.30019 0.47779 -0.666202
-1.38674 0.505979 -0.69134
-1.4537 0.527329 -0.710384
-1.49086 0.539019 -0.720876
-0.71097 0.219012 0
-0.828951 0.285081 -0.157659
-0.986489 0.384404 -0.183138
-1.11915 0.478796 -0.15619
-1.226 0.562393 -0.11097
-1.31202 0.634776 -0.0617878
-1.38139 0.696509 -0.014849
-1.43656 0.747775 0.0266575
-1.47784 0.787408 0.0599437
-1.50026 0.809399 0.078779
-0.857967 0.238003 0
-0.979923 0.296821 0.00651567
-1.13251 0.384171 0.122522
-1.25032 0.466 0.283167
-1.33739 0.537589 0.451949
-1.40222 0.59898 0.61259
-1.45099 0.650951 0.757791
-1.48753 0.693866 0.883027
-1.51357 0.726904 0.982298
-1.52724 0.745186 1.0382
				 </DataArray>
			 </PointData>
			 <Points>
				 <DataArray type="Float64" NumberOfComponents="3" format="ascii">
   -882.6850    -882.6850     -76.4000
   -882.6850    -882.6850     -45.3303
   -882.6850    -882.6850     -29.9276
   -882.6850    -882.6850     -20.8932
   -882.6850    -882.6850     -15.0127
   -882.6850    -882.6850     -10.9164
   -882.6850    -882.6850      -7.9426
   -882.6850    -882.6850      -5.7556
   -882.6850    -882.6850      -4.2105
   -882.6850    -882.6850      -3.4014
   -882.6850    -846.6570     -76.4000
   -882.6850    -846.6570     -45.3279
   -882.6850    -846.6570     -29.9240
   -882.6850    -846.6570     -20.8889
   -882.6850    -846.6570     -15.0080
   -882.6850    -846.6570     -10.9114
   -882.6850    -846.6570      -7.9373
   -882.6850    -846.6570      -5.7502
   -882.6850    -846.6570      -4.2050
   -882.6850    -846.6570      -3.3958
   -882.6850    -810.6291     -76.4000
   -882.6850    -810.6291     -45.3000
   -882.6850    -810.6291     -29.8824
   -882.6850    -810.6291     -20.8391
   -882.6850    -810.6291     -14.9530
   -882.6850    -810.6291     -10.8527
   -882.6850    -810.6291      -7.8759
   -882.6850    -810.6291      -5.6868
   -882.6850    -810.6291      -4.1402
   -882.6850    -810.6291      -3.3303
   -882.6850    -774.6011     -76.4000
   -882.6850    -774.6011     -45.1550
   -882.6850    -774.6011     -29.6654
   -882.6850    -774.6011     -20.5800
   -882.6850    -774.6011     -14.6664
   -882.6850    -774.6011     -10.5470
   -882.6850    -774.6011      -7.5563
   -882.6850    -774.6011      -5.3570
   -882.6850    -774.6011      -3.8032
   -882.6850    -774.6011      -2.9895
   -882.6850    -738.5732     -76.4000
   -882.6850    -738.5732     -44.8124
   -882.6850    -738.5732     -29.1531
   -882.6850    -738.5732     -19.9681
   -882.6850    -738.5732     -13.9896
   -882.6850    -738.5732      -9.8250
   -882.6850    -738.5732      -6.8016
   -882.6850    -738.5732      -4.5782
   -882.6850    -738.5732      -3.0074
   -882.6850    -738.5732      -2.1847
   -882.6850    -702.5452     -76.4000
   -882.6850    -702.5452     -44.3203
   -882.6850    -702.5452     -28.4170
   -882.6850    -702.5452     -19.0889
   -882.6850    -702.5452     -13.0173
   -882.6850    -702.5452      -8.7879
   -882.6850    -702.5452      -5.7173
   -882.6850    -702.5452      -3.4593
   -882.6850    -702.5452      -1.8640
   -882.6850    -702.5452      -1.0285
   -882.6850    -666.5172     -76.4000
   -882.6850    -666.5172     -43.8887
   -882.6850    -666.5172     -27.7714
   -882.6850    -666.5172     -18.3178
   -882.6850    -666.5172     -12.1645
   -882.6850    -666.5172      -7.8781
   -882.6850    -666.5172      -4.7663
   -882.6850    -666.5172      -2.4778