<?xml version="1.0"?>
<VTKFile type="UnstructuredGrid" version="1.0" byte_order="LittleEndian" header_type="UInt64">
	 <UnstructuredGrid>
		 <FieldData> 
			 <DataArray type = "Float64" Name = "TimeValue" NumberOfTuples = "1" format = "ascii" RangeMin = "4.000" RangeMax = "4.000"> 
			 4.000 
			 </DataArray > 
		 </FieldData> 
		 <Piece NumberOfPoints="18910" NumberOfCells="16200">
			 <PointData Scalars="scalars">
				 <DataArray type="Float64" NumberOfComponents="3" Name="Velocity" format="ascii">
-3.18902e-13 -5.62417e-14 0
-1.61766e-08 -2.89536e-09 5.1874e-08
-4.14916e-06 -8.461e-07 1.64809e-05
-5.21147e-05 -2.08946e-05 0.000522132
0.000625073 -0.000129514 0.00540459
0.0104957 -0.000165575 0.0291516
0.0670061 0.00183952 0.0989029
0.276555 0.0141178 0.224807
0.807947 0.053915 0.343099
1.46075 0.109283 0.367093
-3.69896e-13 -6.52331e-14 0
-1.87945e-08 -3.35621e-09 5.08548e-08
-4.96202e-06 -9.87301e-07 1.61721e-05
-7.66953e-05 -2.50056e-05 0.00051428
0.000385975 -0.000167193 0.00535418
0.00928093 -0.000346966 0.0291001
0.0630632 0.00124934 0.100018
0.267659 0.0126041 0.233803
0.793029 0.050545 0.379602
1.44129 0.103631 0.443389
-4.19874e-13 -7.40453e-14 0
-2.13428e-08 -3.80475e-09 4.96777e-08
-5.75194e-06 -1.12432e-06 1.58111e-05
-0.000100668 -2.89934e-05 0.000504792
0.000150778 -0.000203815 0.00528731
0.00806806 -0.000524201 0.0289609
0.0590023 0.000663673 0.100818
0.257812 0.0110402 0.241887
0.774106 0.0468353 0.413726
1.41323 0.0971327 0.515216
-4.68698e-13 -8.26542e-14 0
-2.38134e-08 -4.23956e-09 4.83522e-08
-6.51614e-06 -1.25669e-06 1.54021e-05
-0.000123931 -3.28434e-05 0.000493808
-7.92146e-05 -0.000239221 0.00520547
0.00686641 -0.000696238 0.0287414
0.0548722 8.86618e-05 0.10132
0.247234 0.00945989 0.24903
0.751963 0.0429255 0.445137
1.37822 0.0900998 0.581704
-5.16235e-13 -9.10361e-14 0
-2.61996e-08 -4.65944e-09 4.68881e-08
-7.25239e-06 -1.38404e-06 1.49489e-05
-0.000146401 -3.6544e-05 0.000481471
-0.000302918 -0.000273291 0.00511017
0.0056841 -0.000862232 0.0284496
0.050718 -0.000470354 0.101544
0.236139 0.00789427 0.25524
0.727392 0.0389502 0.473676
1.33795 0.0828393 0.642385
-5.62354e-13 -9.91679e-14 0
-2.84955e-08 -5.06339e-09 4.52947e-08
-7.95892e-06 -1.5061e-06 1.44556e-05
-0.000168016 -4.00867e-05 0.000467916
-0.000519461 -0.000305929 0.00500288
0.00452789 -0.00102152 0.0280935
0.0465793 -0.00100895 0.101516
0.224723 0.00637076 0.260557
0.701143 0.0350314 0.499343
1.29403 0.0756324 0.697159
-6.06929e-13 -1.07027e-13 0
-3.06961e-08 -5.45052e-09 4.35811e-08
-8.63432e-06 -1.62262e-06 1.39257e-05
-0.000188724 -4.3465e-05 0.000453266
-0.000728163 -0.000337069 0.00488492
0.00340316 -0.00117361 0.0276804
0.0424888 -0.00152365 0.101261
0.213155 0.004912 0.265043
0.673877 0.0312732 0.522261
1.2479 0.0687219 0.746233
-6.49836e-13 -1.14593e-13 0
-3.2797e-08 -5.82005e-09 4.17557e-08
-9.27743e-06 -1.73341e-06 1.33623e-05
-0.000208486 -4.66736e-05 0.00043763
-0.000928503 -0.000366656 0.00475747
0.00231405 -0.00131814 0.0272171
0.0384722 -0.0020119 0.100806
0.201573 0.00353547 0.268775
0.646142 0.0277587 0.542649
1.20076 0.0623041 0.790042
-6.90959e-13 -1.21844e-13 0
-3.4794e-08 -6.17126e-09 3.9826e-08
-9.8872e-06 -1.83831e-06 1.27684e-05
-0.000227271 -4.97083e-05 0.000421104
-0.00112008 -0.000394652 0.00462153
0.0012636 -0.00145484 0.0267091
0.0345486 -0.00247194 0.100172
0.190081 0.00225352 0.271836
0.618365 0.0245487 0.560783
1.15354 0.0565256 0.829184
-7.30184e-13 -1.2876e-13 0
-3.66832e-08 -6.50344e-09 3.77992e-08
-1.04627e-05 -1.93714e-06 1.21464e-05
-0.000245051 -5.25649e-05 0.000403769
-0.00130259 -0.000421019 0.00447795
0.000254014 -0.00158355 0.0261613
0.0307312 -0.00290274 0.0993805
0.178753 0.0010736 0.274308
0.590848 0.0216822 0.576972
1.10693 0.0514828 0.864347
-7.67404e-13 -1.35323e-13 0
-3.84608e-08 -6.81594e-09 3.56822e-08
-1.10029e-05 -2.02976e-06 1.14985e-05
-0.000261799 -5.52395e-05 0.000385696
-0.00147577 -0.000445728 0.00432744
-0.000713177 -0.00170414 0.0255777
0.0270284 -0.0033039 0.0984486
0.167634 -1.31583e-06 0.276269
0.563783 0.0191775 0.591536
1.06136 0.047224 0.896263
-8.02515e-13 -1.41514e-13 0
-4.01231e-08 -7.10809e-09 3.34813e-08
-1.1507e-05 -2.116e-06 1.08271e-05
-0.000277493 -5.77283e-05 0.00036695
-0.00163941 -0.000468747 0.00417064
-0.00163688 -0.00181651 0.0249618
0.0234451 -0.0036755 0.0973919
0.156748 -0.000972266 0.277794
0.537267 0.0170337 0.604786
1.01703 0.0437528 0.925661
-8.35423e-13 -1.47316e-13 0
-4.16666e-08 -7.3793e-09 3.12031e-08
-1.19742e-05 -2.19572e-06 1.0134e-05
-0.000292112 -6.00277e-05 0.000347594
-0.00179334 -0.000490053 0.00400815
-0.00251631 -0.00192064 0.0243168
0.0199836 -0.00401811 0.0962249
0.146102 -0.00184376 0.278952
0.511319 0.015233 0.617023
0.973973 0.0410322 0.953242
-8.66037e-13 -1.52714e-13 0
-4.30885e-08 -7.62906e-09 2.88545e-08
-1.24037e-05 -2.26881e-06 9.4216e-06
-0.000305639 -6.21354e-05 0.000327693
-0.00193742 -0.000509631 0.0038406
-0.00335094 -0.00201656 0.0236461
0.0166449 -0.0043327 0.0949622
0.135694 -0.00262325 0.279811
0.485905 0.013743 0.628528
0.932096 0.0389904 0.979668
-8.94271e-13 -1.57692e-13 0
-4.43866e-08 -7.85701e-09 2.64424e-08
-1.27953e-05 -2.33521e-06 8.692e-06
-0.00031807 -6.40507e-05 0.000307317
-0.00207159 -0.000527483 0.00366869
-0.00414047 -0.00210436 0.0229535
0.0134294 -0.00462063 0.0936197
0.125515 -0.00332057 0.280437
0.460956 0.0125199 0.639572
0.891203 0.0375271 1.00555
-9.2005e-13 -1.62237e-13 0
-4.55602e-08 -8.06296e-09 2.39741e-08
-1.31491e-05 -2.39495e-06 7.94762e-06
-0.000329409 -6.57754e-05 0.000286541
-0.0021959 -0.000543631 0.0034932
-0.00488492 -0.00218427 0.0222435
0.010337 -0.00488367 0.0922163
0.115556 -0.00394734 0.280907
0.436391 0.0115113 0.650419
0.851054 0.0365219 1.03147
-9.43302e-13 -1.66337e-13 0
-4.66094e-08 -8.24702e-09 2.14572e-08
-1.34658e-05 -2.44816e-06 7.19094e-06
-0.000339681 -6.73146e-05 0.000265448
-0.00231051 -0.000558131 0.00331505
-0.00558469 -0.00225663 0.0215216
0.00736737 -0.00512393 0.0907753
0.105809 -0.00451635 0.281303
0.412127 0.0106601 0.661341
0.811397 0.0358421 1.05798
-9.63963e-13 -1.6998e-13 0
-4.75367e-08 -8.40955e-09 1.88991e-08
-1.37466e-05 -2.49508e-06 6.42443e-06
-0.000348929 -6.86772e-05 0.000244121
-0.00241577 -0.000571071 0.00313524
-0.00624079 -0.00232194 0.0207941
0.00451979 -0.00534395 0.0893246
0.0962693 -0.00504105 0.281726
0.388095 0.00990806 0.672634
0.771998 0.0353521 1.08565
-9.81977e-13 -1.73156e-13 0
-4.83458e-08 -8.55126e-09 1.63071e-08
-1.39937e-05 -2.5361e-06 5.65043e-06
-0.00035722 -6.98765e-05 0.000222648
-0.00251221 -0.000582581 0.00295485
-0.00685489 -0.00238086 0.0200686
0.00179238 -0.00554663 0.0878981
0.086934 -0.00553504 0.282297
0.364238 0.00919832 0.684634
0.732657 0.034921 1.11508
-9.97294e-13 -1.75857e-13 0
-4.90426e-08 -8.67318e-09 1.36874e-08
-1.42099e-05 -2.57173e-06 4.871e-06
-0.000364644 -7.09302e-05 0.000201107
-0.00260056 -0.000592831 0.00277502
-0.00742955 -0.00243426 0.019353
-0.000818508 -0.00573522 0.0865354
0.0777996 -0.00601178 0.283159
0.340511 0.00847812 0.697733
0.693206 0.0344289 1.14696
-1.00987e-12 -1.78074e-13 0
-4.96346e-08 -8.77664e-09 1.10455e-08
-1.43988e-05 -2.6026e-06 4.08769e-06
-0.000371315 -7.186e-05 0.000179568
-0.00268179 -0.000602029 0.00259682
-0.00796824 -0.00248313 0.0186564
-0.00331923 -0.00591339 0.0852816
0.0688576 -0.00648455 0.284482
0.316869 0.00769943 0.712402
0.653492 0.0337691 1.1821
-1.01968e-12 -1.79803e-13 0
-5.01307e-08 -8.86321e-09 8.38496e-09
-1.45645e-05 -2.62947e-06 3.30144e-06
-0.000377366 -7.2691e-05 0.000158081
-0.00275702 -0.000610415 0.00242129
-0.00847541 -0.00252864 0.0179876
-0.00571977 -0.00608512 0.0841869
0.0600891 -0.00696658 0.286465
0.293246 0.00681841 0.7292
0.613344 0.0328482 1.2215
-1.02668e-12 -1.81037e-13 0
-5.05409e-08 -8.93465e-09 5.70768e-09
-1.47116e-05 -2.65316e-06 2.51236e-06
-0.000382943 -7.34508e-05 0.000136676
-0.00282756 -0.000618254 0.00224928
-0.00895648 -0.00257207 0.0173559
-0.00803462 -0.00625478 0.0833059
0.0514576 -0.00747158 0.289334
0.269531 0.00579308 0.748791
0.572515 0.0315805 1.26633
-1.03086e-12 -1.81775e-13 0
-5.08756e-08 -8.9928e-09 3.01333e-09
-1.48447e-05 -2.6745e-06 1.7196e-06
-0.000388203 -7.41681e-05 0.000115351
-0.00289482 -0.000625824 0.00208146
-0.00941773 -0.00261479 0.01677
-0.0102836 -0.0064271 0.0826968
0.0429017 -0.00801445 0.293346
0.245534 0.00457953 0.771953
0.530623 0.0298794 1.318
-1.03222e-12 -1.82013e-13 0
-5.11447e-08 -9.03941e-09 2.99297e-10
-1.49687e-05 -2.69432e-06 9.21347e-07
-0.000393302 -7.48714e-05 9.40773e-05
-0.00296026 -0.000633401 0.00191828
-0.00986616 -0.00265818 0.0162382
-0.0124927 -0.00660716 0.0824201
0.0343271 -0.00861226 0.298784
0.220951 0.00312652 0.799579
0.487062 0.0276455 1.37818
-1.03074e-12 -1.81752e-13 0
-5.13574e-08 -9.0761e-09 -2.43927e-09
-1.50876e-05 -2.71338e-06 1.1473e-07
-0.000398386 -7.55868e-05 7.27894e-05
-0.00302533 -0.00064125 0.00175988
-0.0103093 -0.00270362 0.0157681
-0.0146944 -0.00680045 0.0825384
0.0255971 -0.0092855 0.305956
0.195322 0.00136894 0.832677
0.440912 0.0247506 1.44879
-1.02642e-12 -1.80991e-13 0
-5.15209e-08 -9.10414e-09 -5.20923e-09
-1.52052e-05 -2.73232e-06 -7.04068e-07
-0.000403585 -7.6337e-05 5.13918e-05
-0.00309136 -0.000649599 0.00160615
-0.010755 -0.00275238 0.0153662
-0.0169289 -0.00701284 0.0831149
0.0165229 -0.0100595 0.315193
0.16798 -0.00077997 0.872366
0.390833 0.0210194 1.53198
-1.01929e-12 -1.79733e-13 0
-5.16398e-08 -9.12435e-09 -8.01909e-09
-1.53239e-05 -2.75157e-06 -1.53969e-06
-0.000408998 -7.71387e-05 2.97586e-05
-0.0031595 -0.000658635 0.00145669
-0.0112113 -0.00280563 0.0150381
-0.0192444 -0.0072507 0.0842122
0.00685327 -0.0109659 0.32684
0.138002 -0.00343747 0.919848
0.334937 0.016209 1.63011
-1.00936e-12 -1.77982e-13 0
-5.17157e-08 -9.13697e-09 -1.08783e-08
-1.5445e-05 -2.77133e-06 -2.39742e-06
-0.000414689 -7.80011e-05 7.73899e-06
-0.00323066 -0.000668474 0.00131085
-0.0116857 -0.0028643 0.0147882
-0.0216981 -0.00752083 0.0858907
-0.00373813 -0.0120446 0.341247
0.104147 -0.0067609 0.976372
0.270659 0.00998555 1.74567
-9.96658e-13 -1.75742e-13 0
-5.17459e-08 -9.14157e-09 -1.37967e-08
-1.55681e-05 -2.7915e-06 -3.28282e-06
-0.00042067 -7.89241e-05 -1.48356e-05
-0.00330535 -0.000679154 0.00116772
-0.0121856 -0.00292907 0.0146193
-0.0243566 -0.00783059 0.0882053
-0.0156641 -0.0133455 0.35875
0.0647978 -0.0109574 1.04316
0.194614 0.00190107 1.88108
-9.81218e-13 -1.73019e-13 0
-5.17235e-08 -9.13689e-09 -1.6783e-08
-1.56907e-05 -2.81164e-06 -4.20143e-06
-0.000426895 -7.98962e-05 -3.8142e-05
-0.00338366 -0.00069061 0.0010262
-0.0127173 -0.00300027 0.0145327
-0.0272968 -0.00818778 0.0912009
-0.0294346 -0.0149295 0.379641
0.0179024 -0.0162928 1.1213
0.043348 -0.0140682 1.90409
-7.11126e-13 -1.25395e-13 0
-3.38288e-08 -5.97985e-09 3.66271e-08
-9.69024e-06 -1.74624e-06 1.15785e-05
-0.000250595 -4.79143e-05 0.000389081
-0.00184927 -0.000401898 0.00441596
-0.00574193 -0.00167287 0.0266075
-0.0026631 -0.00405108 0.106133
0.0540061 -0.00464219 0.31604
0.257322 0.00435831 0.728886
0.537491 0.020851 1.16496
-7.49348e-13 -1.32134e-13 0
-3.55703e-08 -6.28592e-09 3.4685e-08
-1.02077e-05 -1.8349e-06 1.09953e-05
-0.000266392 -5.04398e-05 0.000372514
-0.00201089 -0.000425122 0.00426958
-0.00665523 -0.0017893 0.0259593
-0.00638178 -0.00448047 0.104497
0.0415395 -0.00602636 0.314299
0.223403 0.000510697 0.731674
0.476778 0.0137426 1.17565
-7.85512e-13 -1.38511e-13 0
-3.72233e-08 -6.57639e-09 3.26747e-08
-1.07003e-05 -1.91921e-06 1.03962e-05
-0.00028148 -5.28459e-05 0.000355618
-0.00216578 -0.000447271 0.00412157
-0.00753285 -0.00190016 0.0253091
-0.00996194 -0.00488625 0.102851
0.0295384 -0.00731636 0.312396
0.190856 -0.00301986 0.733505
0.418729 0.00728259 1.18401
-8.19519e-13 -1.44507e-13 0
-3.87827e-08 -6.85036e-09 3.0596e-08
-1.11665e-05 -1.9989e-06 9.78044e-06
-0.000295826 -5.51249e-05 0.000338338
-0.00231379 -0.000468285 0.00397113
-0.00837543 -0.00200524 0.0246517
-0.0134124 -0.00526826 0.101178
0.0179587 -0.00851277 0.310298
0.159557 -0.00623231 0.734402
0.363149 0.00148045 1.19022
-8.51275e-13 -1.50106e-13 0
-4.02425e-08 -7.10678e-09 2.84498e-08
-1.16044e-05 -2.07363e-06 9.14725e-06
-0.00030938 -5.72668e-05 0.000320629
-0.00245463 -0.000488082 0.00381751
-0.00918271 -0.00210425 0.0239819
-0.016739 -0.00562607 0.0994574
0.0067641 -0.0096161 0.307965
0.129393 -0.00912822 0.734358
0.309845 -0.00366236 1.19439
-8.80693e-13 -1.55293e-13 0
-4.15965e-08 -7.34455e-09 2.62376e-08
-1.2012e-05 -2.143e-06 8.49638e-06
-0.000322085 -5.92605e-05 0.000302458
-0.00258786 -0.000506565 0.00366012
-0.0099537 -0.0021968 0.0232952
-0.0199441 -0.0059591 0.0976702
-0.00407294 -0.0106272 0.305357
0.100266 -0.0117128 0.733363
0.258641 -0.0081545 1.19664
-9.07693e-13 -1.60053e-13 0
-4.28387e-08 -7.5626e-09 2.39625e-08
-1.23871e-05 -2.20667e-06 7.82811e-06
-0.000333882 -6.10952e-05 0.000283812
-0.00271305 -0.000523641 0.00349858
-0.0106871 -0.00228255 0.0225883
-0.0230282 -0.00626686 0.0958033
-0.0145711 -0.0115477 0.302447
0.072097 -0.0139964 0.731431
0.209375 -0.0120182 1.19711
-9.32199e-13 -1.64374e-13 0
-4.39641e-08 -7.76006e-09 2.16287e-08
-1.27282e-05 -2.26434e-06 7.14335e-06
-0.000344725 -6.2762e-05 0.000264703
-0.00282981 -0.000539234 0.00333283
-0.0113815 -0.0023612 0.0218601
-0.0259902 -0.00654916 0.093851
-0.0247428 -0.0123808 0.299229
0.0448171 -0.0159963 0.72863
0.161895 -0.0152924 1.19605
-9.54146e-13 -1.68244e-13 0
-4.49693e-08 -7.93632e-09 1.92419e-08
-1.30341e-05 -2.31581e-06 6.4436e-06
-0.000354583 -6.42557e-05 0.000245168
-0.0029379 -0.0005533 0.00316314
-0.0120361 -0.00243264 0.0211115
-0.0288298 -0.00680637 0.0918172
-0.034599 -0.0131319 0.295731
0.0183617 -0.017738 0.725099
0.116041 -0.0180349 1.1938
-9.73472e-13 -1.71651e-13 0
-4.58529e-08 -8.09113e-09 1.68087e-08
-1.33047e-05 -2.36107e-06 5.73082e-06
-0.000363456 -6.5576e-05 0.000225266
-0.00303732 -0.000565844 0.00299009
-0.012651 -0.00249696 0.020346
-0.0315486 -0.00703961 0.089717
-0.044154 -0.0138086 0.292016
-0.00734508 -0.0192555 0.721065
0.0716236 -0.0203228 1.19086
-9.90125e-13 -1.74587e-13 0
-4.6616e-08 -8.22471e-09 1.43361e-08
-1.35409e-05 -2.40025e-06 5.00729e-06
-0.000371374 -6.67288e-05 0.000205075
-0.00312838 -0.000576926 0.00281458
-0.013228 -0.00255455 0.0195691
-0.034153 -0.00725094 0.0875767
-0.0534324 -0.0144214 0.288185
-0.032404 -0.0205912 0.716852
0.0284029 -0.0222499 1.18784
-1.00406e-12 -1.77044e-13 0
-4.72625e-08 -8.33773e-09 1.18313e-08
-1.37447e-05 -2.43372e-06 4.27534e-06
-0.000378407 -6.77263e-05 0.000184679
-0.00321178 -0.000586672 0.00263771
-0.0137704 -0.00260608 0.0187887
-0.0366549 -0.00744341 0.0854336
-0.0624752 -0.0149837 0.28438
-0.0569575 -0.0217945 0.712876
-0.0139352 -0.0239237 1.18554
-1.01523e-12 -1.79014e-13 0
-4.77991e-08 -8.43135e-09 9.30075e-09
-1.39191e-05 -2.46203e-06 3.53708e-06
-0.000384663 -6.85875e-05 0.000164164
-0.00328858 -0.000595271 0.00246071
-0.0142836 -0.00265258 0.0180141
-0.0390739 -0.00762112 0.0833343
-0.0713463 -0.0155115 0.280778
-0.0812052 -0.0229209 0.709649
-0.055804 -0.025461 1.18489
-1.02362e-12 -1.80493e-13 0
-4.82346e-08 -8.50717e-09 6.74961e-09
-1.40683e-05 -2.4859e-06 2.79408e-06
-0.000390286 -6.93375e-05 0.000143604
-0.00336024 -0.000602973 0.00228484
-0.0147753 -0.00269533 0.0172554
-0.0414382 -0.00778917 0.0813325
-0.0801379 -0.0160233 0.277588
-0.105422 -0.0240305 0.707766
-0.0977437 -0.0269844 1.18694
-1.0292e-12 -1.81476e-13 0
-4.85801e-08 -8.56711e-09 4.18105e-09
-1.41975e-05 -2.50622e-06 2.04713e-06
-0.00039545 -7.00062e-05 0.000123055
-0.00342855 -0.000610075 0.00211124
-0.0152551 -0.00273591 0.0165233
-0.0437854 -0.00795356 0.0794875
-0.0889764 -0.01654 0.275042
-0.129974 -0.0251879 0.707897
-0.140454 -0.0286216 1.19291
-1.03195e-12 -1.81961e-13 0
-4.88477e-08 -8.61332e-09 1.59585e-09
-1.4312e-05 -2.52396e-06 1.296e-06
-0.000400353 -7.0627e-05 0.00010254
-0.00349559 -0.000616912 0.0019409
-0.0157347 -0.00277606 0.0158283
-0.0461626 -0.0081211 0.0778608
-0.0980268 -0.0170851 0.273395
-0.155343 -0.0264627 0.71078
-0.184836 -0.0305062 1.2041
-1.03187e-12 -1.81945e-13 0
-4.90503e-08 -8.64803e-09 -1.00792e-09
-1.44179e-05 -2.54013e-06 5.39296e-07
-0.000405205 -7.12347e-05 8.20497e-05
-0.00356364 -0.00062384 0.0017745
-0.0162272 -0.00281769 0.01518
-0.0486267 -0.00829928 0.0765151
-0.107498 -0.0176847 0.272913
-0.182146 -0.0279319 0.717213
-0.232041 -0.032784 1.22198
-1.02895e-12 -1.81431e-13 0
-4.91998e-08 -8.67339e-09 -3.63501e-09
-1.45208e-05 -2.55571e-06 -2.25634e-07
-0.000410216 -7.18639e-05 6.15336e-05
-0.00363506 -0.000631212 0.0016124
-0.0167472 -0.00286274 0.0145869
-0.0512445 -0.00849616 0.0755118
-0.117649 -0.0183683 0.273874
-0.211167 -0.0296839 0.728049
-0.283542 -0.0356218 1.24811
-1.0232e-12 -1.80418e-13 0
-4.93071e-08 -8.69127e-09 -6.29292e-09
-1.46259e-05 -2.5716e-06 -1.00269e-06
-0.000415587 -7.25462e-05 4.08998e-05
-0.00371225 -0.000639366 0.0014546
-0.0173102 -0.00291316 0.014056
-0.0540924 -0.00872034 0.0749103
-0.128793 -0.0191695 0.276559
-0.243394 -0.0318238 0.744188
-0.341214 -0.0392207 1.2842
-1.01465e-12 -1.78909e-13 0
-4.93803e-08 -8.70312e-09 -8.99148e-09
-1.47375e-05 -2.5885e-06 -1.79692e-06
-0.000421496 -7.33087e-05 2.00162e-05
-0.00379748 -0.000648604 0.0013007
-0.0179323 -0.00297078 0.0135929
-0.0572568 -0.00898088 0.0747667
-0.141313 -0.0201275 0.281255
-0.280066 -0.0344814 0.76657
-0.407441 -0.0438345 1.33204
-1.00331e-12 -1.7691e-13 0
-4.94245e-08 -8.7098e-09 -1.17423e-08
-1.48585e-05 -2.60692e-06 -2.61435e-06
-0.000428086 -7.41714e-05 -1.28568e-06
-0.00389279 -0.000659166 0.00114995
-0.0186296 -0.00303728 0.0132013
-0.0608343 -0.00928734 0.0751324
-0.155663 -0.0212886 0.288239
-0.322726 -0.0378198 0.796154
-0.48525 -0.0497914 1.39351
-9.89216e-13 -1.74424e-13 0
-4.94403e-08 -8.71143e-09 -1.45579e-08
-1.49904e-05 -2.62702e-06 -3.46166e-06
-0.000435452 -7.51453e-05 -2.32041e-05
-0.0039999 -0.000671219 0.00100125
-0.0194181 -0.00311409 0.0128831
-0.0649318 -0.00964978 0.0760524
-0.172388 -0.0227083 0.297776
-0.37329 -0.042047 0.833877
-0.578456 -0.0575207 1.47049
-9.72404e-13 -1.71459e-13 0
-4.94237e-08 -8.70728e-09 -1.74508e-08
-1.51324e-05 -2.64866e-06 -4.34586e-06
-0.000443628 -7.62297e-05 -4.59579e-05
-0.00412006 -0.000684827 0.000853229
-0.0203128 -0.0032023 0.0126383
-0.0696662 -0.0100788 0.0775623
-0.192129 -0.024453 0.310094
-0.434108 -0.0474282 0.880582
-0.69183 -0.0675829 1.56468
-9.52922e-13 -1.68024e-13 0
-4.93653e-08 -8.69568e-09 -2.04321e-08
-1.52815e-05 -2.67124e-06 -5.27377e-06
-0.000452574 -7.7411e-05 -6.97748e-05
-0.00425391 -0.000699935 0.000704237
-0.0213272 -0.00330259 0.0124646
-0.0751633 -0.0105853 0.0796833
-0.215633 -0.0266023 0.325355
-0.508023 -0.0542973 0.936889
-0.831238 -0.0806994 1.67739
-9.30823e-13 -1.64127e-13 0
-4.925e-08 -8.67396e-09 -2.35103e-08
-1.54322e-05 -2.69372e-06 -6.25145e-06
-0.000462164 -7.86596e-05 -9.48752e-05
-0.0044013 -0.000716342 0.000552463
-0.0224722 -0.00341504 0.0123566
-0.0815541 -0.0111805 0.0824144
-0.243749 -0.0292494 0.343602
-0.598392 -0.0630659 1.00301
-1.02177 -0.0968945 1.66769
-9.06168e-13 -1.59779e-13 0
-4.90571e-08 -8.63846e-09 -2.66895e-08
-1.5576e-05 -2.71458e-06 -7.28351e-06
-0.000472174 -7.99289e-05 -0.000121454
-0.00456112 -0.000733678 0.000395982
-0.0237549 -0.00353909 0.0123057
-0.0889689 -0.0118752 0.0857222
-0.277402 -0.0325002 0.364694
-0.709029 -0.0742228 1.07845
-1.22478 -0.101592 1.30457
-8.79023e-13 -1.54993e-13 0
-4.87608e-08 -8.58461e-09 -2.99681e-08
-1.57018e-05 -2.73178e-06 -8.37232e-06
-0.00048227 -8.1154e-05 -0.00014966
-0.00473112 -0.000751388 0.000232851
-0.0251766 -0.00367327 0.0122984
-0.0975252 -0.0126786 0.089527
-0.317542 -0.0364674 0.388214
-0.844018 -0.0883161 1.16165
-1.35681 -0.0890282 0.937076
-8.49465e-13 -1.4978e-13 0
-4.83304e-08 -8.50703e-09 -3.33371e-08
-1.57954e-05 -2.74283e-06 -9.51723e-06
-0.000492004 -8.22513e-05 -0.000179568
-0.00490773 -0.000768714 6.12056e-05
-0.0267309 -0.00381508 0.0123159
-0.10731 -0.0135968 0.0936881
-0.365035 -0.0412597 0.413367
-1.00732 -0.105907 1.24958
-1.4223 -0.0602163 0.593013
-8.17575e-13 -1.44157e-13 0
-4.77322e-08 -8.39975e-09 -3.67788e-08
-1.58405e-05 -2.74483e-06 -1.07137e-05
-0.000500817 -8.31198e-05 -0.000211156
-0.00508589 -0.000784694 -0.000120613
-0.028401 -0.00396076 0.0123327
-0.118355 -0.0146299 0.0979883
-0.420502 -0.0469618 0.438876
-1.20212 -0.127481 1.33727
-1.43361 -0.0178189 0.297501
-7.83439e-13 -1.38138e-13 0
-4.69309e-08 -8.25655e-09 -4.0266e-08
-1.58188e-05 -2.73456e-06 -1.19526e-05
-0.00050805 -8.36442e-05 -0.00024428
-0.00525903 -0.000798178 -0.000313912
-0.0301569 -0.00410512 0.0123163
-0.130602 -0.0157684 0.102125
-0.484092 -0.0536047 0.462921
-1.42983 -0.153314 1.41754
-1.40919 0.034135 0.0694232
-7.47151e-13 -1.31739e-13 0
-4.58916e-08 -8.0713e-09 -4.37614e-08
-1.57111e-05 -2.70872e-06 -1.32197e-05
-0.000512968 -8.37003e-05 -0.000278648
-0.00541908 -0.000807866 -0.00051947
-0.0319531 -0.0042414 0.0122277
-0.143866 -0.0169895 0.105711
-0.555195 -0.0611288 0.483146
-1.41004 -0.115708 1.04625
-1.37029 0.0908091 -0.0814186
-9.6432e-13 -1.70032e-13 0
-4.33288e-08 -7.62703e-09 1.70999e-08
-1.25795e-05 -2.1867e-06 5.58308e-06
-0.00036379 -6.11216e-05 0.00020898
-0.00341357 -0.000542999 0.00266515
-0.0170032 -0.00253722 0.0176807
-0.0566132 -0.00797778 0.0769744
-0.141366 -0.0192531 0.249853
-0.277667 -0.0377966 0.619528
-0.402591 -0.055766 1.0285
-9.82297e-13 -1.73201e-13 0
-4.41452e-08 -7.7701e-09 1.47765e-08
-1.28277e-05 -2.22836e-06 4.91583e-06
-0.000371802 -6.23296e-05 0.000190233
-0.0035016 -0.000554402 0.00249698
-0.0175405 -0.00259601 0.0168814
-0.0589904 -0.00819897 0.0743749
-0.149851 -0.0199507 0.243146
-0.301075 -0.0395737 0.604902
-0.443884 -0.0587725 1.00494
-9.97576e-13 -1.75895e-13 0
-4.4842e-08 -7.8921e-09 1.24132e-08
-1.3042e-05 -2.26403e-06 4.23695e-06
-0.000378875 -6.3373e-05 0.000171145
-0.00358137 -0.000564365 0.00232553
-0.0180387 -0.00264791 0.0160641
-0.0612312 -0.00839507 0.0716989
-0.157909 -0.0205629 0.236159
-0.323269 -0.0410892 0.589499
-0.48285 -0.0612615 0.980059
-1.01012e-12 -1.78106e-13 0
-4.54209e-08 -7.99331e-09 1.00172e-08
-1.32232e-05 -2.2939e-06 3.54862e-06
-0.000385047 -6.4258e-05 0.000151789
-0.00365333 -0.000572954 0.00215164
-0.0185004 -0.00269332 0.0152344
-0.0633472 -0.00856805 0.0689722
-0.165581 -0.0210985 0.228993
-0.344369 -0.0423744 0.573646
-0.519727 -0.0632985 0.954487
-1.01988e-12 -1.79828e-13 0
-4.58868e-08 -8.07458e-09 7.59516e-09
-1.33739e-05 -2.31836e-06 2.85304e-06
-0.000390407 -6.49989e-05 0.000132245
-0.00371849 -0.000580318 0.00197634
-0.0189317 -0.00273309 0.0143996
-0.0653634 -0.00872156 0.0662313
-0.172951 -0.0215717 0.221792
-0.36462 -0.043476 0.557773
-0.554979 -0.0649779 0.929032
-1.02685e-12 -1.81056e-13 0
-4.62476e-08 -8.13735e-09 5.15312e-09
-1.34977e-05 -2.33807e-06 2.15206e-06
-0.000395095 -6.56182e-05 0.000112588
-0.00377841 -0.000586686 0.00180075
-0.0193419 -0.00276848 0.0135685
-0.0673191 -0.00886085 0.0635206
-0.180155 -0.022002 0.214728
-0.384403 -0.0444545 0.542379
-0.589313 -0.0664188 0.904608
-1.03099e-12 -1.81786e-13 0
-4.65144e-08 -8.18351e-09 2.69517e-09
-1.35997e-05 -2.35387e-06 1.44682e-06
-0.000399294 -6.61448e-05 9.2878e-05
-0.0038352 -0.000592359 0.00162595
-0.0197438 -0.00280114 0.0127499
-0.0692684 -0.00899264 0.0608881
-0.187381 -0.0224132 0.207986
-0.404245 -0.0453823 0.528001
-0.62369 -0.0677604 0.882178
-1.03231e-12 -1.82018e-13 0
-4.67e-08 -8.21532e-09 2.23033e-10
-1.36856e-05 -2.36675e-06 7.37485e-07
-0.000403221 -6.66131e-05 7.31453e-05
-0.00389136 -0.000597691 0.00145278
-0.0201529 -0.00283303 0.0119525
-0.0712792 -0.00912488 0.0583824
-0.194868 -0.0228335 0.201758
-0.424817 -0.0463415 0.515182
-0.659328 -0.0691572 0.862712
-1.03078e-12 -1.81749e-13 0
-4.68183e-08 -8.23524e-09 -2.26449e-09
-1.37619e-05 -2.37781e-06 2.29757e-08
-0.00040712 -6.70608e-05 5.33827e-05
-0.00394978 -0.000603073 0.00128183
-0.0205872 -0.00286632 0.0111838
-0.0734321 -0.00926648 0.0560495
-0.202905 -0.023294 0.19623
-0.446934 -0.0474223 0.504451
-0.697703 -0.0707767 0.847148
-1.02643e-12 -1.80982e-13 0
-4.68833e-08 -8.24572e-09 -4.77172e-09
-1.38351e-05 -2.38815e-06 -6.99139e-07
-0.000411243 -6.75263e-05 3.35394e-05
-0.00401351 -0.000608914 0.00111324
-0.0210668 -0.00290332 0.0104496
-0.0758192 -0.00942704 0.0539301
-0.211831 -0.023829 0.191574
-0.471567 -0.0487235 0.496304
-0.74057 -0.0728008 0.83637
-1.01926e-12 -1.79717e-13 0
-4.69081e-08 -8.24905e-09 -7.30615e-09
-1.39115e-05 -2.39879e-06 -1.4327e-06
-0.00041584 -6.80469e-05 1.35177e-05
-0.00408573 -0.000615614 0.000946742
-0.0216131 -0.00294636 0.00975341
-0.078543 -0.00961671 0.0520581
-0.222037 -0.0244758 0.187942
-0.49985 -0.0503541 0.491193
-0.789998 -0.0754303 0.831193
-1.00929e-12 -1.77959e-13 0
-4.69036e-08 -8.24714e-09 -9.8781e-09
-1.39964e-05 -2.41063e-06 -2.18288e-06
-0.000421146 -6.86559e-05 -6.82729e-06
-0.00416958 -0.00062355 0.000781604
-0.0222483 -0.00299774 0.00909668
-0.0817159 -0.00984595 0.050459
-0.233968 -0.025275 0.185461
-0.533111 -0.0524372 0.489516
-0.848431 -0.0788947 0.832355
-9.96552e-13 -1.75712e-13 0
-4.68775e-08 -8.24132e-09 -1.25003e-08
-1.40943e-05 -2.42439e-06 -2.95607e-06
-0.000427366 -6.9381e-05 -2.76846e-05
-0.00426805 -0.00063305 0.000616625
-0.0229953 -0.00305959 0.00847838
-0.0854593 -0.0101255 0.0491497
-0.248128 -0.0262716 0.184232
-0.572905 -0.0551156 0.491601
-0.918777 -0.0834668 0.840489
-9.81074e-13 -1.72983e-13 0
-4.68336e-08 -8.23224e-09 -1.51869e-08
-1.42078e-05 -2.44046e-06 -3.75959e-06
-0.000434662 -7.02413e-05 -4.92815e-05
-0.00438384 -0.000644373 0.000450184
-0.0238769 -0.00313384 0.00789507
-0.0899041 -0.0104663 0.0481364
-0.265094 -0.0275164 0.184317
-0.621067 -0.0585605 0.497685
-1.00452 -0.089482 0.85608
-9.62902e-13 -1.69778e-13 0
-4.67706e-08 -8.21967e-09 -1.79527e-08
-1.43379e-05 -2.45892e-06 -4.60135e-06
-0.000443139 -7.12458e-05 -7.18753e-05
-0.00451925 -0.000657693 0.000280281
-0.0249149 -0.00322212 0.00734089
-0.0951892 -0.0108795 0.047414
-0.285516 -0.0290675 0.185735
-0.67976 -0.0629811 0.507869
-1.10985 -0.0973624 0.879383
-9.42085e-13 -1.66107e-13 0
-4.66819e-08 -8.20243e-09 -2.08118e-08
-1.44832e-05 -2.47946e-06 -5.48941e-06
-0.000452834 -7.23907e-05 -9.57413e-05
-0.00467601 -0.000673068 0.000104606
-0.0261299 -0.00332564 0.00680754
-0.101461 -0.0113763 0.0469627
-0.31013 -0.0309919 0.188433
-0.751531 -0.0686359 0.522039
-1.23982 -0.107646 0.910258
-9.18682e-13 -1.61981e-13 0
-4.65551e-08 -8.1783e-09 -2.37763e-08
-1.46396e-05 -2.50128e-06 -6.43139e-06
-0.000463696 -7.36573e-05 -0.000121158
-0.00485508 -0.00069042 -7.93719e-05
-0.02754 -0.00344507 0.00628413
-0.108868 -0.0119677 0.0467439
-0.339751 -0.0333673 0.192264
-0.83934 -0.0758445 0.539753
-1.40039 -0.121016 0.947933
-8.92756e-13 -1.57409e-13 0
-4.63715e-08 -8.144e-09 -2.68544e-08
-1.48002e-05 -2.52312e-06 -7.43383e-06
-0.000475576 -7.50099e-05 -0.000148386
-0.00505642 -0.000709509 -0.000274291
-0.0291588 -0.0035804 0.00575704
-0.117555 -0.0126644 0.0466945
-0.375255 -0.0362822 0.196942
-0.946538 -0.0849951 0.56006
-1.59852 -0.138326 0.990621
-8.64378e-13 -1.52405e-13 0
-4.61069e-08 -8.09523e-09 -3.00489e-08
-1.49551e-05 -2.54319e-06 -8.50135e-06
-0.000488205 -7.6394e-05 -0.000177649
-0.00527873 -0.0007299 -0.00048276
-0.0309936 -0.00373076 0.00520969
-0.127654 -0.0134756 0.0467191
-0.417536 -0.0398336 0.201983
-1.07676 -0.0965447 0.581267
-1.80979 -0.149837 0.804575
-8.33626e-13 -1.46982e-13 0
-4.57315e-08 -8.02677e-09 -3.33558e-08
-1.50913e-05 -2.55916e-06 -9.63577e-06
-0.000501187 -7.7735e-05 -0.0002091
-0.00551916 -0.000750945 -0.000707177
-0.0330422 -0.00389418 0.00462229
-0.139258 -0.0144077 0.0466817
-0.467421 -0.0441215 0.206644
-1.23365 -0.111001 0.60065
-1.9228 -0.130321 0.240268
-8.00585e-13 -1.41156e-13 0
-4.52114e-08 -7.93263e-09 -3.67623e-08
-1.51928e-05 -2.56824e-06 -1.08352e-05
-0.000513989 -7.89382e-05 -0.000242794
-0.00577297 -0.000771761 -0.000949518
-0.0352897 -0.00406733 0.00397194
-0.152404 -0.0154623 0.0463978
-0.52553 -0.0492359 0.209856
-1.42038 -0.128878 0.614153
-1.95642 -0.090812 -0.297867
-7.65346e-13 -1.34942e-13 0
-4.45099e-08 -7.80639e-09 -4.02456e-08
-1.52413e-05 -2.56726e-06 -1.20932e-05
-0.000525941 -7.98905e-05 -0.000278655
-0.00603336 -0.000791231 -0.00121108
-0.0377046 -0.00424535 0.003233
-0.167033 -0.0166334 0.0456308
-0.592079 -0.055236 0.210184
-1.63888 -0.1506 0.616163
-1.9288 -0.0352348 -0.782741
-7.28005e-13 -1.28358e-13 0
-4.35897e-08 -7.64147e-09 -4.37725e-08
-1.52166e-05 -2.55275e-06 -1.33978e-05
-0.00053625 -8.0464e-05 -0.000316442
-0.00629127 -0.000808019 -0.0014922
-0.0402349 -0.00442155 0.00237828
-0.182953 -0.017903 0.044096
-0.66662 -0.0621201 0.205837
-1.88878 -0.17637 0.599494
-1.86379 0.0309953 -1.19495
-6.88665e-13 -1.21421e-13 0
-4.24152e-08 -7.43164e-09 -4.72986e-08
-1.50979e-05 -2.52123e-06 -1.47315e-05
-0.000544029 -8.0523e-05 -0.000355729
-0.00653549 -0.000820621 -0.00179196
-0.0428054 -0.00458743 0.00138122
-0.1998 -0.0192377 0.0414779
-0.747749 -0.0697863 0.194772
-1.86166 -0.137733 0.204162
-1.78662 0.1017 -1.52504
-6.47434e-13 -1.14151e-13 0
-4.09551e-08 -7.17147e-09 -5.07701e-08
-1.48653e-05 -2.46943e-06 -1.60709e-05
-0.000548348 -7.99325e-05 -0.000395894
-0.00675301 -0.00082744 -0.00210792
-0.0453172 -0.00473271 0.000219256
-0.217008 -0.0205847 0.0374642
-0.832853 -0.0779937 0.17493
-1.71405 -0.0733049 -0.207639
-1.71871 0.170886 -1.77394
-6.04425e-13 -1.06567e-13 0
-3.91859e-08 -6.85683e-09 -5.41246e-08
-1.45014e-05 -2.39454e-06 -1.73873e-05
-0.000548298 -7.857e-05 -0.000436119
-0.00692964 -0.000826905 -0.00243593
-0.0476499 -0.00484577 -0.00112176
-0.233803 -0.0218699 0.0317969
-0.917974 -0.0863339 0.144598
-1.54573 -0.00642355 -0.521332
-1.67272 0.233729 -1.95101
-5.59756e-13 -9.86903e-14 0
-3.7094e-08 -6.4854e-09 -5.7295e-08
-1.39932e-05 -2.2946e-06 -1.86484e-05
-0.000543069 -7.63378e-05 -0.000475426
-0.00705108 -0.000817609 -0.00277003
-0.0496684 -0.00491437 -0.00264263
-0.249234 -0.0230009 0.0243345
-0.997921 -0.0942311 0.102878
-1.3766 0.0575078 -0.740962
-1.64946 0.287333 -2.06991
-5.1355e-13 -9.05427e-14 0
-3.46776e-08 -6.05696e-09 -6.02123e-08
-1.33335e-05 -2.1687e-06 -1.98198e-05