<?xml version="1.0"?>
<VTKFile type="UnstructuredGrid" version="1.0" byte_order="LittleEndian" header_type="UInt64">
	 <UnstructuredGrid>
		 <Piece NumberOfPoints="18910" NumberOfCells="16200">
			 <PointData Scalars="scalars">
				 <DataArray type="Float64" NumberOfComponents="3" Name="Velocity" format="ascii">
-1.51831e-05 -9.67269e-06 0
-0.00128632 -0.000819466 -0.00110796
-0.0163851 -0.0104367 -0.0140949
-0.0729044 -0.0464363 -0.0622204
-0.19148 -0.122681 -0.159294
-0.362194 -0.24034 -0.280498
-0.499758 -0.383227 -0.316213
-0.314384 -0.499287 -0.0397299
0.781637 -0.47891 0.744967
2.46678 -0.317049 1.60987
-1.43493e-05 -9.1415e-06 0
-0.00121487 -0.000773947 -0.00121409
-0.0154708 -0.00985384 -0.0154418
-0.0688477 -0.0438394 -0.0682037
-0.181014 -0.115851 -0.175084
-0.343683 -0.22723 -0.3111
-0.480269 -0.36363 -0.361257
-0.323211 -0.477729 -0.0734631
0.686564 -0.466633 0.813522
2.26573 -0.320671 1.85252
-1.3441e-05 -8.56284e-06 0
-0.00113698 -0.000724329 -0.00131353
-0.0144739 -0.00921836 -0.0167009
-0.0644208 -0.0410068 -0.073792
-0.169565 -0.108395 -0.189842
-0.323272 -0.212891 -0.339871
-0.458188 -0.342094 -0.404541
-0.3321 -0.45397 -0.109505
0.576454 -0.453934 0.866394
2.02466 -0.327584 2.06155
-1.24629e-05 -7.93971e-06 0
-0.00105317 -0.000670934 -0.00140575
-0.0134013 -0.00853468 -0.0178659
-0.0596565 -0.0379597 -0.0789568
-0.157221 -0.100371 -0.203493
-0.301108 -0.197433 -0.366658
-0.433578 -0.31877 -0.445821
-0.340286 -0.428081 -0.147864
0.454954 -0.440432 0.901725
1.75139 -0.33669 2.23176
-1.142e-05 -7.27536e-06 0
-0.000963951 -0.000614092 -0.00149032
-0.0122603 -0.00780743 -0.0189312
-0.0545885 -0.0347194 -0.0836743
-0.144072 -0.0918378 -0.215973
-0.277347 -0.180969 -0.391325
-0.40652 -0.293815 -0.484861
-0.347022 -0.400141 -0.188394
0.325823 -0.425735 0.91846
1.45414 -0.346835 2.35974
-1.03179e-05 -6.57323e-06 0
-0.00086986 -0.000554149 -0.00156682
-0.0110582 -0.00704128 -0.0198922
-0.0492506 -0.0313075 -0.0879242
-0.130207 -0.0828526 -0.227229
-0.252148 -0.163612 -0.413757
-0.377116 -0.267391 -0.521439
-0.351624 -0.37024 -0.23082
0.192726 -0.409469 0.916256
1.14108 -0.356885 2.44375
-9.16221e-06 -5.83697e-06 0
-0.000771445 -0.000491451 -0.00163493
-0.00980239 -0.00624093 -0.0207448
-0.0436765 -0.0277457 -0.0916896
-0.115716 -0.0734733 -0.237216
-0.225669 -0.145474 -0.433856
-0.345483 -0.239659 -0.555341
-0.353489 -0.338478 -0.274776
0.0590979 -0.3913 0.895358
0.819984 -0.365774 2.48345
-7.95894e-06 -5.0704e-06 0
-0.000669262 -0.000426352 -0.00169433
-0.0085002 -0.00541104 -0.0214856
-0.0378995 -0.0240551 -0.0949563
-0.100686 -0.0637567 -0.245897
-0.198069 -0.126665 -0.451537
-0.311756 -0.210778 -0.586372
-0.352108 -0.304965 -0.319831
-0.071934 -0.37094 0.856462
0.498015 -0.372541 2.47959
-6.71434e-06 -4.2775e-06 0
-0.000563868 -0.000359208 -0.00174477
-0.00715893 -0.00455627 -0.0221117
-0.0319525 -0.0202567 -0.0977124
-0.0852044 -0.0537585 -0.25324
-0.169506 -0.107294 -0.466731
-0.276084 -0.180907 -0.614352
-0.347059 -0.269823 -0.365513
-0.197575 -0.348157 0.800607
0.181683 -0.376339 2.43382
-5.43487e-06 -3.46239e-06 0
-0.000455828 -0.000290378 -0.00178603
-0.00578584 -0.00368125 -0.0226208
-0.0258681 -0.0163712 -0.0999482
-0.0693566 -0.0435338 -0.259221
-0.140139 -0.0874661 -0.479376
-0.238628 -0.150206 -0.639112
-0.338008 -0.233183 -0.411327
-0.315352 -0.322768 0.729088
-0.12318 -0.376435 2.3484
-4.12718e-06 -2.62931e-06 0
-0.000345711 -0.000220224 -0.00181794
-0.00438823 -0.00279062 -0.0230109
-0.0196786 -0.0124194 -0.101656
-0.0532276 -0.0331371 -0.263819
-0.110124 -0.0672885 -0.489424
-0.19956 -0.118833 -0.660503
-0.324695 -0.195188 -0.456756
-0.42309 -0.294642 0.643411
-0.411378 -0.372212 2.22616
-2.79807e-06 -1.78256e-06 0
-0.00023409 -0.000149113 -0.00184036
-0.00297339 -0.00188903 -0.0232806
-0.0134166 -0.0084218 -0.10283
-0.0369022 -0.0226228 -0.267021
-0.0796204 -0.0468662 -0.496836
-0.159063 -0.0869486 -0.678388
-0.306929 -0.15599 -0.501272
-0.518899 -0.263697 0.545266
-0.678319 -0.363161 2.07043
-1.45442e-06 -9.26566e-07 0
-0.000121545 -7.74136e-05 -0.00185322
-0.00154864 -0.000981143 -0.0234291
-0.00711428 -0.00439918 -0.103468
-0.0204653 -0.0120452 -0.268817
-0.0487868 -0.026305 -0.501587
-0.117332 -0.0547136 -0.692646
-0.284592 -0.115757 -0.544328
-0.601168 -0.229904 0.436533
-0.920017 -0.348889 1.88497
-1.03219e-07 -6.57571e-08 0
-8.65524e-06 -5.49417e-06 -0.00185646
-0.000121295 -7.16207e-05 -0.0234564
-0.000804095 -0.000372104 -0.103569
-0.00400148 -0.00145854 -0.26921
-0.0177835 -0.00570988 -0.503666
-0.0745727 -0.0222911 -0.703175
-0.25764 -0.0746657 -0.58536
-0.668593 -0.193292 0.319269
-1.13314 -0.329126 1.67402
1.24852e-06 7.95394e-07 0
0.000104001 6.62766e-05 -0.00185013
0.0013014 0.00083492 -0.0233629
0.00548205 0.00363908 -0.103137
0.0124057 0.00908387 -0.268208
0.0132301 0.014815 -0.503082
-0.031004 0.0101555 -0.709895
-0.226113 -0.0329096 -0.623797
-0.720214 -0.15395 0.195695
-1.3151 -0.303744 1.44219
2.59377e-06 1.65241e-06 0
0.000215855 0.000137536 -0.0018343
0.00271235 0.00173396 -0.0231503
0.011713 0.00761452 -0.102181
0.0286747 0.01953 -0.265832
0.0440968 0.0351682 -0.499861
0.013146 0.0424646 -0.712753
-0.190146 0.00930694 -0.65907
-0.755466 -0.112037 0.0681484
-1.46416 -0.272764 1.19441
3.92555e-06 2.50085e-06 0
0.000326352 0.00020793 -0.00180913
0.00410472 0.00262115 -0.0228208
0.017859 0.0115353 -0.10071
0.044728 0.0298305 -0.262112
0.0746652 0.0552533 -0.494051
0.057641 0.0744796 -0.711726
-0.149976 0.0517693 -0.690633
-0.774222 -0.0677806 -0.0609932
-1.57951 -0.23637 0.935773
5.23695e-06 3.33631e-06 0
0.00043496 0.000277122 -0.00177481
0.0054721 0.0034924 -0.0223776
0.0238924 0.0153837 -0.0987408
0.0604934 0.0399396 -0.257089
0.104793 0.074981 -0.485722
0.102241 0.106053 -0.706825
-0.105943 0.0942581 -0.717992
-0.776821 -0.0214751 -0.189418
-1.66136 -0.194907 0.671257
6.52116e-06 4.15444e-06 0
0.000541183 0.000344794 -0.00173163
0.00680863 0.00434398 -0.0218247
0.0297882 0.019144 -0.0962924
0.0759065 0.0498168 -0.250816
0.134351 0.0942718 -0.474964
0.146711 0.137049 -0.698104
-0.0584795 0.136556 -0.740734
-0.764047 0.0265305 -0.315005
-1.71088 -0.148864 0.405508
7.77151e-06 4.951e-06 0
0.000644561 0.000410653 -0.00167989
0.00810911 0.00517258 -0.0211669
0.035525 0.0228025 -0.093387
0.0909126 0.0594275 -0.243353
0.163227 0.113059 -0.461885
0.190823 0.167352 -0.685652
-0.00809507 0.178456 -0.758555
-0.737088 0.0758493 -0.435958
-1.73015 -0.0988467 0.142537
8.9815e-06 5.72185e-06 0
0.000744681 0.000474437 -0.00161997
0.00936914 0.0059754 -0.0204092
0.0410852 0.0263481 -0.090049
0.105468 0.0687445 -0.234765
0.19133 0.131289 -0.446607
0.234374 0.196867 -0.669597
0.0446557 0.21977 -0.771287
-0.697432 0.126081 -0.550924
-1.72189 -0.045528 -0.114531
1.01449e-05 6.46298e-06 0
0.000841183 0.000535916 -0.00155226
0.0105851 0.00675015 -0.0195571
0.0464554 0.0297723 -0.0863038
0.11954 0.0777481 -0.22512
0.21859 0.148926 -0.429256
0.277184 0.225522 -0.650097
0.0992088 0.260339 -0.778912
-0.646742 0.176839 -0.659082
-1.68928 0.0104033 -0.363665
1.12555e-05 7.17056e-06 0
0.000933754 0.00059489 -0.00147715
0.0117544 0.0074951 -0.0186161
0.0516264 0.0330693 -0.0821763
0.133108 0.0864259 -0.214484
0.244963 0.165948 -0.40996
0.319113 0.253274 -0.627336
0.155032 0.300041 -0.781566
-0.586697 0.22778 -0.760205
-1.63556 0.068305 -0.604055
1.23078e-05 7.84091e-06 0
0.00102213 0.000651191 -0.00139507
0.0128748 0.00820897 -0.0175914
0.0565928 0.0362358 -0.07769
0.146162 0.0947727 -0.20292
0.270424 0.182346 -0.388839
0.360057 0.280101 -0.601509
0.211669 0.338794 -0.779531
-0.518825 0.278634 -0.854668
-1.56375 0.127642 -0.836156
1.32961e-05 8.47054e-06 0
0.00110609 0.000704678 -0.00130639
0.0139451 0.00889089 -0.0164877
0.0613522 0.0392703 -0.072865
0.158702 0.102789 -0.19048
0.294969 0.198124 -0.365996
0.399957 0.306006 -0.57281
0.268776 0.376562 -0.773222
-0.44433 0.329225 -0.943425
-1.4762 0.188047 -1.06165
1.42154e-05 9.05618e-06 0
0.00118543 0.000755226 -0.00121149
0.0149644 0.00954028 -0.0153091
0.0659042 0.0421725 -0.0677177
0.170732 0.110477 -0.177204
0.318608 0.213295 -0.341516
0.438797 0.331007 -0.541423
0.326162 0.413348 -0.763156
-0.363924 0.379496 -1.02795
-1.37431 0.249369 -1.28331
1.50608e-05 9.5948e-06 0
0.00125999 0.000802723 -0.0011107
0.0159317 0.0101566 -0.0140587
0.0702492 0.0449429 -0.0622594
0.182257 0.117843 -0.163119
0.341359 0.227873 -0.315453
0.476596 0.355133 -0.507509
0.38382 0.449202 -0.749922
-0.277664 0.429523 -1.11012
-1.25814 0.311728 -1.50486
1.58281e-05 1.00836e-05 0
0.00132958 0.000847057 -0.00100432
0.0168464 0.0107393 -0.0127387
0.0743865 0.0475811 -0.0564964
0.193284 0.12489 -0.148237
0.363238 0.24187 -0.287834
0.513409 0.378415 -0.471194
0.441953 0.484202 -0.734141
-0.184791 0.479532 -1.19211
-1.12604 0.37556 -1.73064
1.65132e-05 1.052e-05 0
0.00139401 0.000888106 -0.000892601
0.0177068 0.0112876 -0.0113505
0.0783131 0.0500851 -0.0504301
0.203807 0.131616 -0.132553
0.384253 0.255288 -0.258656
0.549311 0.400874 -0.432567
0.501005 0.518457 -0.716422
-0.0835731 0.529911 -1.27621
-0.974312 0.441659 -1.96532
1.71125e-05 1.09019e-05 0
0.00145306 0.000925728 -0.000775779
0.018511 0.0117999 -0.00989468
0.0820215 0.0524501 -0.0440572
0.213814 0.13801 -0.116051
0.404393 0.268115 -0.227887
0.584397 0.422516 -0.391671
0.56168 0.552096 -0.697305
0.0288524 0.58122 -1.36457
-0.796854 0.511229 -2.21333
1.7623e-05 1.12271e-05 0
0.00150647 0.00095975 -0.000654069
0.0192556 0.0122744 -0.00837145
0.0854983 0.0546676 -0.0373717
0.22327 0.144053 -0.0987052
0.423617 0.280314 -0.195476
0.618765 0.443318 -0.348499
0.624964 0.585256 -0.677186
0.156613 0.634203 -1.4589
-0.590052 0.585384 -2.53969
-1.31019e-05 -8.34685e-06 0
-0.00107056 -0.000682008 -0.00130164
-0.0134003 -0.00853253 -0.0162715
-0.0591945 -0.0375955 -0.0712608
-0.156866 -0.0989771 -0.182827
-0.314163 -0.195544 -0.329761
-0.533801 -0.324891 -0.405057
-0.796827 -0.479885 -0.127488
-0.995049 -0.635491 0.932682
-1.00707 -0.729992 2.35599
-1.21003e-05 -7.70873e-06 0
-0.000987604 -0.000629157 -0.00138809
-0.0123562 -0.0078671 -0.0173438
-0.0545961 -0.0346578 -0.0759699
-0.144953 -0.0912779 -0.195286
-0.292277 -0.180669 -0.355058
-0.506617 -0.301981 -0.450412
-0.793405 -0.452832 -0.204056
-1.09159 -0.61733 0.814521
-1.24817 -0.731152 2.20586
-1.10358e-05 -7.03058e-06 0
-0.000899906 -0.000573286 -0.00146746
-0.0112553 -0.00716548 -0.0183284
-0.0497531 -0.0315647 -0.0802961
-0.132401 -0.0831764 -0.20675
-0.269076 -0.165003 -0.378469
-0.476886 -0.277717 -0.493176
-0.784803 -0.423568 -0.279472
-1.1777 -0.595604 0.689255
-1.47292 -0.727372 2.03545
-9.91401e-06 -6.31592e-06 0
-0.000807843 -0.000514635 -0.00153935
-0.0101016 -0.00643033 -0.0192204
-0.0446828 -0.0283271 -0.0842173
-0.119252 -0.0746998 -0.217161
-0.244637 -0.148596 -0.399888
-0.444696 -0.252174 -0.533184
-0.770976 -0.39216 -0.35351
-1.25269 -0.570275 0.55722
-1.67965 -0.718433 1.84525
-8.74074e-06 -5.56847e-06 0
-0.000711819 -0.00045346 -0.00160337
-0.00889997 -0.00566457 -0.0200147
-0.0394041 -0.0249572 -0.0877114
-0.105553 -0.0658787 -0.226461
-0.219044 -0.131506 -0.419201
-0.410142 -0.225434 -0.57026
-0.751834 -0.358681 -0.425909
-1.31569 -0.541294 0.418839
-1.86627 -0.704068 1.63593
-7.52209e-06 -4.7921e-06 0
-0.000612273 -0.000390042 -0.00165914
-0.00765537 -0.00487148 -0.0207067
-0.0339386 -0.0214688 -0.090757
-0.0913588 -0.056748 -0.234594
-0.192395 -0.113796 -0.436299
-0.373329 -0.197592 -0.604216
-0.727268 -0.323219 -0.496348
-1.3657 -0.508612 0.274758
-2.03042 -0.683997 1.40858
-6.26438e-06 -3.99085e-06 0
-0.00050968 -0.000324682 -0.00170634
-0.00637352 -0.00405468 -0.0212919
-0.0283106 -0.0178772 -0.0933351
-0.0767305 -0.0473473 -0.241509
-0.164802 -0.0955443 -0.451079
-0.334388 -0.168761 -0.634862
-0.697189 -0.285884 -0.564425
-1.40169 -0.472206 0.12594
-2.1696 -0.657962 1.16497
-4.97414e-06 -3.16888e-06 0
-0.000404548 -0.000257705 -0.00174471
-0.00506059 -0.00321809 -0.0217671
-0.0225467 -0.0141997 -0.0954297
-0.0617371 -0.0377208 -0.247163
-0.136392 -0.0768339 -0.463452
-0.293474 -0.139069 -0.662013
-0.661564 -0.246814 -0.62966
-1.42274 -0.432105 -0.0262882
-2.28154 -0.625784 0.907608
-3.65807e-06 -2.33045e-06 0
-0.000297409 -0.00018945 -0.00177403
-0.0037232 -0.00236593 -0.0221295
-0.0166759 -0.0104545 -0.0970296
-0.0464536 -0.0279166 -0.251526
-0.107306 -0.057758 -0.47335
-0.250781 -0.108661 -0.685498
-0.620457 -0.206183 -0.691514
-1.42821 -0.388414 -0.180263
-2.36447 -0.587412 0.639765
-2.32301e-06 -1.47992e-06 0
-0.000188817 -0.000120269 -0.00179419
-0.00236818 -0.00150256 -0.0223778
-0.010728 -0.00666077 -0.0981293
-0.0309582 -0.0179844 -0.254584
-0.0776963 -0.038414 -0.480735
-0.206536 -0.0776922 -0.70518
-0.574065 -0.164195 -0.749418
-1.41788 -0.341325 -0.334072
-2.41743 -0.542965 0.365267
-9.75882e-07 -6.21705e-07 0
-7.93257e-05 -5.05146e-05 -0.00180514
-0.00100242 -0.000632362 -0.0225119
-0.00473336 -0.00283771 -0.0987291
-0.0153301 -0.00797472 -0.256337
-0.0477181 -0.0189003 -0.4856
-0.160994 -0.0463248 -0.720963
-0.522731 -0.12108 -0.802827
-1.39203 -0.291126 -0.485704
-2.44051 -0.492746 0.0882193
3.76312e-07 2.39737e-07 0
3.05187e-05 1.94643e-05 -0.00180692
0.000367419 0.000240416 -0.022533
0.00127916 0.000996254 -0.0988358
0.000354509 0.00206454 -0.256806
-0.0175256 0.000688403 -0.487971
-0.114435 -0.0147175 -0.732806
-0.466941 -0.0770861 -0.851268
-1.35149 -0.238185 -0.633243
-2.43485 -0.437243 -0.187384
1.72655e-06 1.09993e-06 0
0.000140194 8.93357e-05 -0.00179966
0.00173512 0.00111182 -0.0224434
0.0072829 0.0048242 -0.0984617
0.0160261 0.0120896 -0.256024
0.0127374 0.0202661 -0.487908
-0.0671409 0.0169812 -0.740731
-0.407303 -0.0324646 -0.894396
-1.29758 -0.182935 -0.775058
-2.40267 -0.377091 -0.458063
3.06782e-06 1.95442e-06 0
0.000249216 0.000158791 -0.00178356
0.00309515 0.00197832 -0.0222466
0.0132548 0.0086315 -0.0976243
0.0316248 0.0220634 -0.25404
0.042944 0.0397599 -0.4855
-0.0193889 0.0486419 -0.744821
-0.344504 0.0125477 -0.932033
-1.23202 -0.125834 -0.90999
-2.34699 -0.313013 -0.72122
4.39317e-06 2.79876e-06 0
0.000357147 0.00022755 -0.00175885
0.00444283 0.00283695 -0.0219466
0.0191761 0.0124063 -0.0963442
0.0471031 0.0319569 -0.250912
0.0729909 0.0591133 -0.480858
0.0285716 0.0801612 -0.745219
-0.279257 0.0577437 -0.964197
-1.15672 -0.0673261 -1.03748
-2.27131 -0.24575 -0.975432
5.6957e-06 3.62856e-06 0
0.000463601 0.000295369 -0.00172584
0.00577444 0.00368534 -0.0215479
0.0250332 0.0161401 -0.0946437
0.0624278 0.0417499 -0.246701
0.102803 0.0782886 -0.474105
0.0765314 0.111467 -0.742114
-0.212237 0.102961 -0.991107
-1.07364 -0.00779754 -1.15765
-2.17925 -0.175978 -1.22062
6.96866e-06 4.43953e-06 0
0.000568248 0.000362036 -0.00168481
0.00708724 0.00452174 -0.0210552
0.0308172 0.0198272 -0.0925448
0.0775796 0.0514318 -0.241469
0.132333 0.0972675 -0.465364
0.124335 0.142522 -0.735729
-0.144026 0.148094 -1.01317
-0.984526 0.0524603 -1.27131
-2.07408 -0.104233 -1.45812
8.20543e-06 5.22744e-06 0
0.000670808 0.000427375 -0.00163607
0.00837935 0.00534495 -0.0204726
0.036524 0.0234653 -0.0900672
0.0925529 0.0610002 -0.23527
0.161566 0.116049 -0.45475
0.171886 0.173321 -0.726299
-0.0750579 0.193101 -1.03097
-0.890738 0.113286 -1.37994
-1.95833 -0.0308303 -1.6906
9.39959e-06 5.9882e-06 0
0.000771044 0.000491232 -0.00157988
0.00964961 0.00615425 -0.0198034
0.0421532 0.027054 -0.0872263
0.107353 0.0704595 -0.228146
0.19051 0.134649 -0.442354
0.219153 0.203889 -0.71405
-0.00557017 0.238004 -1.0452
-0.793043 0.174676 -1.4856
-1.83338 0.0441891 -1.92198
1.05449e-05 6.71787e-06 0
0.000868744 0.000553473 -0.00151648
0.0108973 0.00694918 -0.0190502
0.0477066 0.0305946 -0.0840318
0.121991 0.0798184 -0.220121
0.219192 0.153089 -0.428239
0.266164 0.234274 -0.699185
0.0644329 0.282891 -1.05665
-0.691437 0.236803 -1.5908
-1.69907 0.121121 -2.15716
1.16355e-05 7.41266e-06 0
0.000963705 0.000613971 -0.00144603
0.0121219 0.00772936 -0.018214
0.0531866 0.0340888 -0.0804865
0.136482 0.089087 -0.211202
0.247649 0.1714 -0.412425
0.313004 0.264538 -0.68186
0.135214 0.327907 -1.06613
-0.584961 0.300034 -1.69841
-1.55328 0.20065 -2.40179
1.26657e-05 8.06896e-06 0
0.00105571 0.000672587 -0.00136866
0.0133223 0.00849421 -0.0172947
0.058594 0.037537 -0.0765857
0.150836 0.0982723 -0.20137
0.275919 0.189603 -0.394891
0.359802 0.294745 -0.66217
0.207335 0.373244 -1.07444
-0.471518 0.364945 -1.81137
-1.39154 0.283898 -2.66185
1.36301e-05 8.68336e-06 0
0.00114452 0.000729164 -0.00128442
0.0144971 0.00924269 -0.0162907
0.063926 0.0409376 -0.0723171
0.165054 0.107375 -0.190587
0.304024 0.20771 -0.375568
0.406723 0.32495 -0.640139
0.281687 0.419134 -1.08225
-0.347667 0.432334 -1.93254
-1.20656 0.372487 -2.94311
1.45238e-05 9.25267e-06 0
0.00122982 0.000783506 -0.00119332
0.0156434 0.00997303 -0.0151994
0.0691736 0.0442847 -0.067662
0.17912 0.116383 -0.178793
0.331963 0.225711 -0.354344
0.453954 0.355182 -0.615704
0.359519 0.465835 -1.09008
-0.208439 0.503231 -2.06421
-0.987751 0.468578 -3.25033
1.5342e-05 9.77393e-06 0
0.00131123 0.000835369 -0.00109535
0.0167568 0.0106824 -0.0140173
0.0743194 0.0475672 -0.0625964
0.192994 0.125272 -0.165912
0.359696 0.243565 -0.331069
0.501692 0.385432 -0.588705
0.442457 0.513615 -1.09809
-0.0471781 0.578896 -2.20763
-0.694773 0.57708 -3.63623
1.60806e-05 1.02444e-05 0
0.00138828 0.000884453 -0.000990481
0.0178311 0.0113669 -0.0127403
0.0793356 0.0507673 -0.0570935
0.206607 0.133995 -0.15186
0.387134 0.261192 -0.305563
0.550121 0.41564 -0.558875
0.532483 0.56273 -1.10597
0.144462 0.660792 -2.36223
-0.24504 0.707117 -4.14709
1.67356e-05 1.06618e-05 0
0.00146038 0.000930387 -0.000878735
0.0188578 0.012021 -0.0113649
0.0841825 0.0538595 -0.0511266
0.219857 0.142484 -0.136548
0.414124 0.278466 -0.27763
0.599393 0.445678 -0.525825
0.631869 0.613395 -1.1127
0.376273 0.750506 -2.52467
0.321304 0.856058 -4.62379
1.73038e-05 1.10237e-05 0
0.00152686 0.000972739 -0.000760181
0.019826 0.0126379 -0.00988816
0.0888078 0.0568101 -0.0446728
0.232603 0.150646 -0.119898
0.440445 0.295211 -0.247074
0.64959 0.475336 -0.489031
0.742993 0.665735 -1.11632
0.658781 0.849589 -2.6877
1.00258 1.02304 -5.03365
1.77821e-05 1.13284e-05 0
0.00158694 0.00101101 -0.000634995
0.0207228 0.0132092 -0.00830891
0.093146 0.0595774 -0.0377173
0.244666 0.158363 -0.101851
0.465799 0.311197 -0.213721
0.700676 0.504314 -0.447831
0.868023 0.719717 -1.11368
1.00191 0.959287 -2.83915
1.788 1.20547 -5.34322
1.8168e-05 1.15743e-05 0
0.00163976 0.00104466 -0.000503495
0.0215331 0.0137254 -0.00662842
0.0971203 0.0621118 -0.0302572
0.255833 0.165495 -0.0823817
0.489806 0.326144 -0.177438
0.752423 0.532207 -0.401427
1.00842 0.775055 -1.10029
1.41287 1.08014 -2.96117
2.65739 1.39904 -5.52124
1.84597e-05 1.17601e-05 0
0.00168441 0.00107311 -0.00036617
0.0222403 0.0141759 -0.00485109
0.100644 0.0643581 -0.0223062
0.265859 0.171882 -0.0615089
0.512012 0.339723 -0.13816
0.804333 0.5585 -0.348923
1.1643 0.831103 -1.07041
2.05305 1.22732 -3.15746
3.58184 1.59784 -5.54146
-1.06444e-05 -6.7812e-06 0
-0.000845797 -0.000538812 -0.00145604
-0.0104461 -0.00664903 -0.0179581
-0.0459265 -0.0290812 -0.0782095
-0.122945 -0.0763884 -0.20179
-0.258641 -0.151985 -0.378401
-0.504269 -0.260459 -0.547034
-0.999181 -0.418454 -0.555502
-1.9368 -0.649366 -0.168351
-2.95461 -0.869788 0.451273
-9.50364e-06 -6.05448e-06 0
-0.000755189 -0.000481088 -0.00152453
-0.00932871 -0.00593708 -0.0188041
-0.0410563 -0.0259745 -0.0819206
-0.110319 -0.068292 -0.211656
-0.234603 -0.136268 -0.398943
-0.468431 -0.235356 -0.587243
-0.961369 -0.384436 -0.639031
-1.92653 -0.61104 -0.344175
-2.99264 -0.833236 0.166447
-8.31357e-06 -5.29633e-06 0
-0.000660662 -0.000420868 -0.00158512
-0.00816299 -0.00519433 -0.0195528
-0.035974 -0.0227332 -0.0852081
-0.0971274 -0.0598425 -0.22042
-0.209363 -0.119844 -0.417369
-0.430025 -0.208995 -0.62422
-0.917222 -0.348142 -0.718968
-1.90039 -0.568392 -0.518669
-3.00246 -0.789916 -0.121379
-7.08033e-06 -4.51067e-06 0
-0.000562721 -0.000358472 -0.00163757
-0.00695521 -0.00442481 -0.0202015
-0.0307075 -0.0193749 -0.0880604
-0.083445 -0.0510863 -0.228054
-0.183068 -0.102806 -0.43361
-0.389299 -0.181528 -0.657782
-0.867114 -0.309793 -0.794709
-1.85884 -0.52171 -0.689981
-2.98451 -0.740155 -0.408621
-5.81033e-06 -3.70159e-06 0
-0.000461889 -0.000294235 -0.00168171
-0.00571193 -0.00363268 -0.0207489
-0.0252857 -0.0159182 -0.0904733
-0.0693481 -0.0420716 -0.234547
-0.155876 -0.0852478 -0.447641
-0.346553 -0.153117 -0.687817
-0.811614 -0.269648 -0.865752
-1.80297 -0.471392 -0.856416
-2.94044 -0.684491 -0.691913
-4.51016e-06 -2.87329e-06 0
-0.000358687 -0.000228487 -0.00171746
-0.00443956 -0.00282203 -0.0211949
-0.0197366 -0.0123807 -0.0924498
-0.0549118 -0.0328454 -0.23991
-0.127946 -0.0672634 -0.459476
-0.302112 -0.123924 -0.714293
-0.751448 -0.227983 -0.931769
-1.73439 -0.417914 -1.01666
-2.87296 -0.623619 -0.968558
-3.18657e-06 -2.03007e-06 0
-0.000253617 -0.00016155 -0.00174486
-0.00314407 -0.00199666 -0.0215413
-0.014086 -0.00877888 -0.0939996
-0.0402042 -0.0234497 -0.244174
-0.0994271 -0.048937 -0.469175
-0.256305 -0.0940983 -0.737265
-0.687435 -0.185066 -0.992649
-1.6551 -0.361779 -1.16999
-2.78555 -0.558317 -1.23692
-1.84643e-06 -1.17631e-06 0
-0.000147144 -9.37193e-05 -0.00176399
-0.00183073 -0.00115993 -0.0217905
-0.00835586 -0.00512646 -0.0951377
-0.0252831 -0.0139198 -0.247382
-0.0704469 -0.0303377 -0.476827
-0.20944 -0.0637665 -0.756873
-0.620415 -0.141138 -1.04853
-1.56728 -0.303467 -1.31636
-2.68202 -0.489353 -1.49666
-4.96708e-07 -3.16438e-07 0
-3.96851e-05 -2.52606e-05 -0.00177501
-0.000503844 -0.000314577 -0.021946
-0.002563 -0.00143414 -0.0958827
-0.0101917 -0.00428147 -0.24959
-0.0411059 -0.0115158 -0.482549
-0.161781 -0.0330212 -0.773327
-0.551167 -0.0963871 -1.09979
-1.47299 -0.243382 -1.4565
-2.56611 -0.41739 -1.74891
8.55596e-07 5.45075e-07 0
6.83973e-05 4.35955e-05 -0.0017781
0.000833316 0.000537323 -0.0220113
0.00328118 0.00229097 -0.0962541
0.00504285 0.00544963 -0.250856
-0.0114699 0.00750027 -0.486468
-0.113527 -0.00191629 -0.78689
-0.480341 -0.0509351 -1.14704
-1.37404 -0.181804 -1.59188
-2.441 -0.342901 -1.99625
2.20346e-06 1.40376e-06 0
0.000176799 0.000112655 -0.00177344
0.00217856 0.00139438 -0.02199
0.00917098 0.00604536 -0.0962706
0.0204099 0.0152685 -0.251235
0.0184317 0.0267048 -0.488709
-0.0647998 0.0295366 -0.797853
-0.408392 -0.00482241 -1.19109
-1.27167 -0.118847 -1.72466
-2.30888 -0.266092 -2.24261
3.53988e-06 2.25515e-06 0
0.000285265 0.000181755 -0.00176119
0.00353068 0.00225581 -0.0218848
0.0151059 0.00982881 -0.095947
0.035914 0.0251798 -0.250771
0.0486047 0.0461128 -0.489381
-0.0156369 0.0613668 -0.80651
-0.335532 0.0419965 -1.23287
-1.16644 -0.054436 -1.85757
-2.17058 -0.186829 -2.49311
4.85792e-06 3.09483e-06 0
0.000393581 0.00025076 -0.00174148
0.00488919 0.00312132 -0.0216976
0.0210893 0.0136436 -0.0952924
0.0515724 0.0351956 -0.249492
0.0790855 0.0657565 -0.48856
0.0340092 0.0936396 -0.81313
-0.261681 0.0896536 -1.27342
-1.05801 0.0117261 -1.99382
-2.02519 -0.104589 -2.75387
6.15073e-06 3.91845e-06 0
0.000501554 0.000319547 -0.00171436
0.00625404 0.00399089 -0.0214288
0.0271273 0.0174937 -0.094308
0.0674101 0.045333 -0.247404
0.109934 0.0856796 -0.486282
0.0842677 0.126449 -0.817932
-0.186439 0.138363 -1.31378
-0.944929 0.0801714 -2.13692
-1.86959 -0.0183956 -3.03168
7.4116e-06 4.72171e-06 0
0.00060899 0.000387991 -0.0016798
0.00762523 0.00486449 -0.0210769
0.0332261 0.0213831 -0.092986
0.083454 0.05561 -0.244485
0.141221 0.10593 -0.482527
0.135341 0.159905 -0.82106
-0.10904 0.188415 -1.35498
-0.824484 0.151687 -2.29048
-1.69807 0.0732381 -3.3336
8.63399e-06 5.50046e-06 0
0.00071567 0.000455953 -0.0016377
0.00900225 0.00574183 -0.0206389
0.0393899 0.0253145 -0.0913087
0.0997265 0.0660408 -0.240685
0.173018 0.126548 -0.477216
0.187494 0.194123 -0.822562
-0.0283194 0.240161 -1.39788
-0.692423 0.22733 -2.45789
-1.50172 0.172369 -3.66638
9.81155e-06 6.25065e-06 0
0.000821319 0.000523259 -0.00158788
0.0103837 0.00662195 -0.0201099
0.045618 0.0292873 -0.0892482
0.116237 0.0766312 -0.235925
0.205383 0.147563 -0.470205
0.241041 0.229204 -0.822362
0.0573246 0.294003 -1.4431
-0.542744 0.30844 -2.6419
-1.268 0.281675 -4.03549
1.09382e-05 6.96838e-06 0
0.000925585 0.000589684 -0.00153009
0.0117665 0.00750298 -0.0194833
0.0519018 0.0332961 -0.0867677
0.132975 0.0873729 -0.230095
0.238341 0.168973 -0.461286
0.29633 0.265219 -0.820241
0.149953 0.350373 -1.49083
-0.367515 0.396624 -2.84394
-0.98025 0.404476 -4.44375
1.2008e-05 7.64992e-06 0
0.00102801 0.000654937 -0.00146403
0.0131457 0.00838173 -0.0187513
0.0582226 0.0373287 -0.0838225
0.149901 0.0982383 -0.223063
0.271872 0.19074 -0.45019
0.353719 0.302192 -0.815803
0.25207 0.409698 -1.54063
-0.156867 0.493718 -3.06322
-0.540791 0.55093 -4.9301
1.30154e-05 8.29175e-06 0
0.00112802 0.00071865 -0.00138941
0.014514 0.00925347 -0.0179055
0.0645483 0.0413646 -0.0803634
0.166937 0.109176 -0.21468
0.305892 0.212777 -0.436598
0.413542 0.340072 -0.808453
0.366523 0.472361 -1.59112
0.100672 0.601667 -3.29551
0.14188 0.729401 -5.4499
1.39553e-05 8.89051e-06 0
0.0012249 0.000780369 -0.00130593
0.0158611 0.0101117 -0.0169374
0.0708323 0.0453738 -0.0763397
0.183966 0.120106 -0.204789
0.340241 0.234941 -0.420149
0.476062 0.378719 -0.797361
0.496278 0.538626 -1.63968
0.417272 0.722307 -3.53178
0.946433 0.928666 -5.8762
1.48227e-05 9.44312e-06 0
0.00131781 0.000839557 -0.0012134
0.0171739 0.0109481 -0.0158394
0.0770118 0.0493157 -0.0717037
0.200821 0.130917 -0.193237
0.374665 0.257019 -0.400467
0.541399 0.417874 -0.781449
0.644009 0.608543 -1.68214
0.804097 0.856996 -3.75698
1.85409 1.14475 -6.17354
1.56132e-05 9.94668e-06 0
0.00140577 0.000895595 -0.00111172
0.0184367 0.0117526 -0.0146056
0.083008 0.0531401 -0.066416
0.217291 0.141469 -0.179891
0.408809 0.278736 -0.377179
0.609432 0.457142 -0.759394
0.81148 0.681821 -1.7126
1.26868 1.00611 -3.94922
2.83638 1.37186 -6.31117
1.63225e-05 1.03986e-05 0
0.00148772 0.0009478 -0.00100097
0.0196311 0.0125135 -0.013233
0.088728 0.0567871 -0.0604506
0.233117 0.151592 -0.164653
0.442207 0.299745 -0.349951
0.679686 0.495971 -0.729674
0.998739 0.757678 -1.72358
1.99013 1.18427 -4.11046
3.85658 1.60262 -6.26599
1.69472e-05 1.07965e-05 0
0.00156251 0.000995446 -0.000881425
0.0207369 0.0132179 -0.0117221
0.094067 0.0601896 -0.0538
0.248004 0.161091 -0.147475
0.474286 0.319643 -0.318524
0.751215 0.533642 -0.69068
1.20326 0.834703 -1.7065
2.7903 1.36864 -4.12134
4.87213 1.82858 -6.02499
1.74838e-05 1.11384e-05 0
0.00162898 0.00103779 -0.000753591
0.0217329 0.0138522 -0.0100777
0.0989134 0.063276 -0.0464795
0.261634 0.169758 -0.128374
0.504377 0.337984 -0.282756
0.82251 0.569282 -0.640897
1.41927 0.910776 -1.65274
3.57452 1.54575 -3.95823
5.83763 2.0408 -5.58677
1.79296e-05 1.14224e-05 0
0.001686 0.00107412 -0.00061823
0.0225978 0.014403 -0.00830961
0.103154 0.0659742 -0.0385306
0.273676 0.177379 -0.107443
0.531737 0.354298 -0.242661
0.891487 0.601885 -0.579151
1.63752 0.983093 -1.55513
4.30052 1.70726 -3.62706
6.70823 2.23043 -4.96218
1.82823e-05 1.16471e-05 0
0.00173254 0.00110376 -0.000476347
0.0233119 0.0148576 -0.00643239
0.106683 0.0682157 -0.0300216
0.283811 0.183749 -0.0848554
0.555588 0.368124 -0.198449
0.95557 0.630378 -0.504878
1.84587 1.04835 -1.40966
4.92927 1.84546 -3.14514
7.44307 2.38942 -4.17379
1.85401e-05 1.18114e-05 0
0.00176769 0.00112615 -0.000329181
0.0238577 0.015205 -0.00446541
0.109404 0.0699399 -0.0210471
0.291752 0.188687 -0.0608658
0.575168 0.379035 -0.150542
1.01191 0.653701 -0.41837
2.03065 1.10308 -1.21686
5.42815 1.95391 -2.53977
8.00842 2.51113 -3.25438
1.87016e-05 1.19143e-05 0
0.00179076 0.00114085 -0.000178164
0.0242216 0.0154364 -0.00243203
0.111242 0.0710989 -0.011724
0.297264 0.192045 -0.0358002
0.589795 0.386679 -0.0995849
1.05772 0.670909 -0.320902
2.17877 1.14415 -0.982503
5.77338 2.02788 -1.84594
8.38023 2.59076 -2.2445
1.87661e-05 1.19553e-05 0
0.00180129 0.00114756 -2.48656e-05
0.0243946 0.0155461 -0.000358553
0.112147 0.0716608 -0.00218635
0.300183 0.193725 -0.0100411
0.59893 0.390803 -0.0464123
1.09061 0.68128 -0.214711
2.27992 1.16918 -0.71716
5.95176 2.06471 -1.10334
8.54582 2.62574 -1.18939
-7.88096e-06 -5.02073e-06 0
-0.00061695 -0.00039302 -0.00158071
-0.00756733 -0.00481478 -0.0193583
-0.0332483 -0.020984 -0.0841321
-0.0900937 -0.0551115 -0.218637
-0.196987 -0.110212 -0.424713
-0.413188 -0.191637 -0.693161
-0.894161 -0.316753 -1.02852
-1.85468 -0.51025 -1.4575
-2.91658 -0.701052 -1.8478
-6.63395e-06 -4.22629e-06 0
-0.000520426 -0.000331528 -0.0016327
-0.00639203 -0.00406601 -0.0200164
-0.0281585 -0.0177402 -0.0870633
-0.0768946 -0.0466877 -0.226531
-0.171321 -0.0938065 -0.441436
-0.37093 -0.164799 -0.726877
-0.829793 -0.277275 -1.10152
-1.75841 -0.455942 -1.61643
-2.78789 -0.634378 -2.10887
-5.35249e-06 -3.40991e-06 0
-0.000421126 -0.000268266 -0.00167775
-0.00518228 -0.0032953 -0.020599
-0.0229182 -0.0144004 -0.0896906
-0.0633071 -0.0380129 -0.233677
-0.144919 -0.076909 -0.456768
-0.327492 -0.13714 -0.758485
-0.763427 -0.236496 -1.17198
-1.65797 -0.399515 -1.77332
-2.65187 -0.564648 -2.36905
-4.04324e-06 -2.57583e-06 0
-0.000319354 -0.00020343 -0.00171594
-0.00394049 -0.00250417 -0.0211088
-0.0175348 -0.010969 -0.0920309
-0.0493478 -0.0290957 -0.240129
-0.117824 -0.0595335 -0.47084
-0.283004 -0.108683 -0.788327
-0.695444 -0.194454 -1.24092
-1.55422 -0.341021 -1.9309
-2.50981 -0.491913 -2.63331
-2.71299e-06 -1.72836e-06 0
-0.000215356 -0.000137176 -0.00174733
-0.00266794 -0.00169343 -0.0215481
-0.0120094 -0.00744681 -0.0940982
-0.0350145 -0.019933 -0.245932
-0.0900348 -0.0416683 -0.483778
-0.237494 -0.0794007 -0.816763
-0.625933 -0.151084 -1.30949
-1.44719 -0.280292 -2.09245
-2.36142 -0.415845 -2.90767
-1.36865e-06 -8.71928e-07 0
-0.000109328 -6.9629e-05 -0.00177193
-0.00136484 -0.000863234 -0.0219181
-0.00633771 -0.00383079 -0.0959017
-0.0202881 -0.0105114 -0.25112
-0.0615096 -0.0232782 -0.49568
-0.190885 -0.0492176 -0.844132
-0.554636 -0.106218 -1.37892
-1.33586 -0.216909 -2.26166
-2.20442 -0.335679 -3.19894
-1.72102e-08 -1.09637e-08 0
-1.42839e-06 -8.89579e-07 -0.00178968
-3.06628e-05 -1.32254e-05 -0.0222187
-0.000510878 -0.00011533 -0.097443