<?xml version="1.0"?>
<VTKFile type="UnstructuredGrid" version="1.0" byte_order="LittleEndian" header_type="UInt64">
	 <UnstructuredGrid>
		 <FieldData> 
			 <DataArray type = "Float64" Name = "TimeValue" NumberOfTuples = "1" format = "ascii" RangeMin = "0.500" RangeMax = "0.500"> 
			 0.500 
			 </DataArray > 
		 </FieldData> 
		 <Piece NumberOfPoints="0" NumberOfCells="9">
			 <PointData Scalars="scalars">
				 <DataArray type="Float64" NumberOfComponents="3" Name="Velocity" format="ascii">
				 </DataArray>
			 </PointData>
			 <Points>
				 <DataArray type="Float64" NumberOfComponents="3" format="ascii">
				 </DataArray>
			 </Points>
			 <Cells>
				 <DataArray type="Int64" Name="connectivity" format="ascii">
				 </DataArray>
			 </Cells>
		 </Piece>
	 </UnstructuredGrid>
</VTKFile>
