<?xml version="1.0"?>
<VTKFile type="UnstructuredGrid" version="1.0" byte_order="LittleEndian" header_type="UInt64">
	 <UnstructuredGrid>
		 <Piece NumberOfPoints="1000" NumberOfCells="441">
			 <PointData Scalars="scalars">
				 <DataArray type="Float64" NumberOfComponents="3" Name="Velocity" format="ascii">
-0.099639 -0.0335808 0
-0.12394 -0.0594986 0.174264
-0.153718 -0.0852853 0.295501
-0.177533 -0.096159 0.381358
-0.197058 -0.0959315 0.44097
-0.21377 -0.0891226 0.482212
-0.22831 -0.0789777 0.510728
-0.240764 -0.0677912 0.530221
-0.250692 -0.0575524 0.542896
-0.256328 -0.0513055 0.549082
-0.230456 -0.0398803 0
-0.296655 -0.0737905 0.106223
-0.386939 -0.111454 0.215808
-0.464284 -0.133637 0.325357
-0.527538 -0.143652 0.428163
-0.579264 -0.146001 0.521296
-0.621619 -0.143935 0.603496
-0.655784 -0.13967 0.673556
-0.681663 -0.134922 0.728767
-0.695844 -0.131776 0.759779
-0.362876 -0.0247152 0
-0.467705 -0.0590907 0.027073
-0.608461 -0.10171 0.105752
-0.725245 -0.133633 0.210971
-0.817062 -0.156255 0.323603
-0.889221 -0.172347 0.433321
-0.946194 -0.183926 0.534567
-0.990722 -0.192248 0.623398
-1.0236 -0.197968 0.694756
-1.0413 -0.200896 0.735292
-0.479182 0.00604891 0
-0.608967 -0.0258147 -0.0513535
-0.775759 -0.0701392 -0.0215898
-0.905812 -0.109521 0.0468353
-1.00156 -0.142984 0.129247
-1.07219 -0.17128 0.213151
-1.1248 -0.195094 0.29215
-1.16385 -0.214727 0.362165
-1.19147 -0.229847 0.418701
-1.2059 -0.238222 0.450897
-0.566312 0.0452428 0
-0.707585 0.0147644 -0.127749
-0.882034 -0.0316278 -0.161773
-1.00999 -0.07662 -0.155037
-1.09758 -0.117254 -0.13162
-1.1572 -0.153009 -0.10254
-1.19797 -0.183893 -0.0730186
-1.22571 -0.209793 -0.0459256
-1.24376 -0.229963 -0.0236622
-1.25261 -0.241206 -0.0108786
-0.621063 0.0921327 0
-0.7667 0.0627473 -0.204301
-0.945499 0.0158131 -0.311719
-1.07526 -0.0308376 -0.378631
-1.16268 -0.0731339 -0.425162
-1.22092 -0.110167 -0.459927
-1.25968 -0.141899 -0.486953
-1.2852 -0.168288 -0.508104
-1.30122 -0.188686 -0.52385
-1.30882 -0.199996 -0.532401
-0.648353 0.151146 0
-0.796691 0.128391 -0.27368
-0.984738 0.0906531 -0.45135
-1.12795 0.0527545 -0.58704
-1.23011 0.0186009 -0.696293
-1.30268 -0.0109717 -0.78616
-1.35452 -0.0360148 -0.860427
-1.39138 -0.0566173 -0.920824
-1.41639 -0.0723989 -0.966854
-1.42905 -0.0810952 -0.992173
-0.655898 0.221857 0
-0.808379 0.216017 -0.313971
-1.01085 0.203552 -0.536853
-1.17507 0.189554 -0.716254
-1.30033 0.176405 -0.864071
-1.39553 0.164836 -0.986743
-1.46819 0.154979 -1.08837
-1.5232 0.146853 -1.17099
-1.56271 0.140628 -1.23386
-1.58356 0.137199 -1.2684
-0.648079 0.29001 0
-0.808717 0.308545 -0.300334
-1.03231 0.332459 -0.522133
-1.22392 0.352245 -0.703109
-1.37763 0.368115 -0.852588
-1.49975 0.380896 -0.976578
-1.59666 0.391214 -1.0792
-1.67252 0.399424 -1.16255
-1.7285 0.405568 -1.22595
-1.75862 0.408905 -1.26077
-0.621124 0.329493 0
-0.793501 0.369342 -0.22607
-1.04578 0.424512 -0.396731
-1.2733 0.47266 -0.535925
-1.46346 0.512439 -0.650402
-1.61952 0.545022 -0.745121
-1.74659 0.571605 -0.823479
-1.84812 0.592912 -0.887184
-1.92424 0.60894 -0.935712
-1.96561 0.617674 -0.962395
-0.563406 0.316045 0
-0.742785 0.363384 -0.114353
-1.01926 0.429045 -0.205492
-1.28103 0.486114 -0.28012
-1.50791 0.533013 -0.341094
-1.6992 0.571274 -0.391319
-1.85817 0.602407 -0.432823
-1.98718 0.627329 -0.466609
-2.08504 0.646066 -0.492409
-2.13864 0.656276 -0.506628
-0.463707 0.242861 0
-0.630871 0.280596 -0.00647748
-0.901434 0.332245 -0.0231069
-1.1691 0.376374 -0.0391545
-1.40855 0.41213 -0.0524511
-1.61516 0.441008 -0.0632729
-1.78983 0.464351 -0.0721203
-1.93344 0.482957 -0.0792889
-2.04344 0.496911 -0.0847641
-2.10406 0.504505 -0.0877885
-0.323963 0.12574 0
-0.449336 0.140806 0.0597673
-0.662245 0.159973 0.0852022
-0.88191 0.17495 0.0998717
-1.08443 0.186158 0.110535
-1.26303 0.194644 0.119161
-1.41652 0.201168 0.126379
-1.5443 0.206177 0.13236
-1.64308 0.209833 0.136997
-1.69784 0.211789 0.139578
-0.166335 -0.00527947 0
-0.224613 -0.018509 0.0616382
-0.330415 -0.041015 0.0781172
-0.445813 -0.0643636 0.079431
-0.556441 -0.0860228 0.0761191
-0.656815 -0.105227 0.0717606
-0.744944 -0.121802 0.0675831
-0.819517 -0.135646 0.0640201
-0.877876 -0.146375 0.0612861
-0.910487 -0.152331 0.0597929
-0.0267885 -0.120336 0
-0.0156225 -0.156958 -0.00305637
-0.00272127 -0.215504 -0.0543639
0.00540153 -0.273423 -0.121008
0.00946633 -0.325615 -0.187447
0.0107755 -0.371067 -0.248112
0.0103678 -0.409848 -0.301181
0.00901523 -0.441995 -0.345788
0.00736402 -0.466786 -0.380458
0.00667962 -0.480703 -0.400691
0.061056 -0.201296 0
0.111283 -0.244228 -0.105929
0.191556 -0.311176 -0.259395
0.271326 -0.375972 -0.426225
0.343604 -0.433377 -0.584678
0.406826 -0.482691 -0.726832
0.460937 -0.524298 -0.850309
0.505882 -0.558473 -0.953818
0.540645 -0.584579 -1.03579
0.55942 -0.598505 -1.08203
0.0798334 -0.245203 0
0.122728 -0.274088 -0.193154
0.185444 -0.312747 -0.418431
0.24336 -0.344464 -0.647286
0.293656 -0.368751 -0.857507
0.336684 -0.387102 -1.04203
0.373115 -0.40092 -1.19973
0.40324 -0.411189 -1.33029
0.426417 -0.418346 -1.43141
0.438804 -0.421926 -1.48748
0.0322943 -0.259012 0
0.0363547 -0.265637 -0.224648
0.0271467 -0.261912 -0.44212
0.00521505 -0.246112 -0.642328
-0.0219214 -0.224299 -0.81446
-0.0496468 -0.200632 -0.957994
-0.0755995 -0.17752 -1.07563
-0.098395 -0.156554 -1.16968
-0.116636 -0.139364 -1.24005
-0.127042 -0.129574 -1.27855
-0.0631605 -0.250729 0
-0.102209 -0.242926 -0.205049
-0.183849 -0.215423 -0.352845
-0.280902 -0.176228 -0.460815
-0.378185 -0.133991 -0.536777
-0.468635 -0.0932737 -0.589041
-0.549183 -0.056249 -0.624334
-0.617922 -0.0242334 -0.64749
-0.671987 0.00116555 -0.66173
-0.70228 0.0154689 -0.668298
-0.18 -0.22436 0
-0.246872 -0.215327 -0.170229
-0.366821 -0.193325 -0.248051
-0.496801 -0.166589 -0.274816
-0.620891 -0.140381 -0.272712
-0.733072 -0.116783 -0.255279
-0.831235 -0.0964291 -0.230686
-0.914044 -0.0795526 -0.204258
-0.978677 -0.0665926 -0.180434
-1.01473 -0.0594501 -0.166022
-0.291256 -0.182223 0
-0.363433 -0.177353 -0.150069
-0.478302 -0.173096 -0.204968
-0.591706 -0.173242 -0.214502
-0.693714 -0.176918 -0.202763
-0.782347 -0.182694 -0.181889
-0.857781 -0.189414 -0.158104
-0.920152 -0.196175 -0.134972
-0.968138 -0.202099 -0.115313
-0.994662 -0.205637 -0.103813
-0.376127 -0.13168 0
-0.433383 -0.124583 -0.142528
-0.50821 -0.12451 -0.217814
-0.56801 -0.134493 -0.265885
-0.612893 -0.149918 -0.300999
-0.646353 -0.167317 -0.32888
-0.671345 -0.184617 -0.351901
-0.689837 -0.200458 -0.370901
-0.702828 -0.213513 -0.385662
-0.709571 -0.221034 -0.39391
-0.424257 -0.0887911 0
-0.45471 -0.0699337 -0.120254
-0.473915 -0.0516378 -0.213625
-0.467912 -0.0431625 -0.30002
-0.446872 -0.0410766 -0.380356
-0.418933 -0.042373 -0.453536
-0.389105 -0.0452501 -0.518603
-0.360685 -0.0486395 -0.574411
-0.336686 -0.051781 -0.6186
-0.322665 -0.0536958 -0.643494
-0.436342 -0.0727639 0
-0.438864 -0.042804 -0.0646034
-0.409198 -0.00254719 -0.135247
-0.352224 0.0312186 -0.213805
-0.284251 0.0582332 -0.292678
-0.215165 0.0798826 -0.366897
-0.150232 0.0973039 -0.433806
-0.0928033 0.111156 -0.491511
-0.0465231 0.121532 -0.53728
-0.0202074 0.127176 -0.563067
-0.420142 -0.0933662 0
-0.400777 -0.066186 0.00696295
-0.339965 -0.0262857 -0.0114926
-0.256868 0.00960983 -0.0488043
-0.169154 0.0393694 -0.0948173
-0.0856404 0.0635185 -0.14269
-0.0103265 0.0829355 -0.188443
0.0544174 0.0982565 -0.229402
0.105567 0.109616 -0.262699
0.134297 0.11574 -0.281734
-0.384133 -0.141905 0
-0.348353 -0.132551 0.0540137
-0.266203 -0.117946 0.0733437
-0.166873 -0.105085 0.0638248
-0.0679528 -0.0953397 0.0360999
0.023051 -0.0884224 -0.000807864
0.103272 -0.0837122 -0.0407447
0.171137 -0.0806453 -0.0792902
0.224147 -0.0787971 -0.112184
0.253712 -0.0779664 -0.131535
-0.333554 -0.194805 0
-0.282822 -0.206574 0.0521664
-0.176738 -0.220558 0.0737154
-0.0533874 -0.230877 0.0632884
0.0675976 -0.238391 0.0303708
0.178185 -0.244049 -0.0148627
0.275403 -0.248431 -0.0647946
0.357564 -0.251837 -0.113651
0.421729 -0.254358 -0.155741
0.457519 -0.255721 -0.180647
-0.270565 -0.227213 0
-0.206224 -0.251097 0.0112824
-0.0746809 -0.277134 0.0197673
0.0773957 -0.291266 0.0114851
0.22659 -0.295959 -0.0113962
0.363182 -0.294734 -0.043004
0.483475 -0.290207 -0.0782367
0.585304 -0.284226 -0.112981
0.664937 -0.278323 -0.143083
0.70938 -0.27459 -0.160858
-0.196325 -0.225772 0
-0.12399 -0.249519 -0.040131
0.0216289 -0.271158 -0.0312826
0.188369 -0.276037 -0.00375362
0.350806 -0.268513 0.0291326
0.498661 -0.253872 0.0619343
0.628235 -0.235988 0.0922936
0.737475 -0.217675 0.118859
0.822627 -0.201516 0.14012
0.868497 -0.191873 0.153293
-0.11253 -0.19281 0
-0.0404217 -0.209629 -0.0811988
0.100378 -0.224683 -0.0605932
0.258135 -0.227641 0.0163096
0.409546 -0.221759 0.119487
0.545859 -0.210881 0.231064
0.664322 -0.197786 0.340464
0.763553 -0.184476 0.440272
0.840528 -0.172784 0.522561
0.878375 -0.165991 0.570211
-0.021393 -0.141533 0
0.0454057 -0.151411 -0.109444
0.170271 -0.166689 -0.0939875
0.306883 -0.181696 -0.00666504
0.436763 -0.195416 0.115707
0.553383 -0.207639 0.250392
0.654789 -0.218323 0.383693
0.739902 -0.227379 0.505994
0.805385 -0.234512 0.607279
0.835698 -0.238543 0.664354
0.0757704 -0.0865614 0
0.137677 -0.0916817 -0.130597
0.247602 -0.109155 -0.152489
0.365651 -0.136106 -0.115205
0.478332 -0.167548 -0.0485376
0.580825 -0.199882 0.0299315
0.671329 -0.230824 0.109887
0.748436 -0.258668 0.184369
0.807704 -0.281463 0.246614
0.836721 -0.294055 0.281222
0.180382 -0.0362418 0
0.240876 -0.037751 -0.14582
0.339755 -0.0515326 -0.219733
0.440678 -0.0760517 -0.259677
0.535217 -0.105694 -0.281381
0.620973 -0.13651 -0.292896
0.697019 -0.16609 -0.29858
0.762239 -0.192718 -0.300919
0.813003 -0.214542 -0.301219
0.839376 -0.22653 -0.300916
0.297114 0.00911136 0
0.362031 0.00997911 -0.153039
0.453529 0.00341619 -0.265527
0.532715 -0.00939932 -0.361573
0.597268 -0.0246338 -0.445516
0.649823 -0.0400374 -0.518869
0.692785 -0.0544494 -0.582332
0.727484 -0.0671497 -0.635792
0.753333 -0.0776761 -0.677401
0.766696 -0.0836408 -0.699586
0.430883 0.0540323 0
0.512837 0.0554908 -0.155525
0.614111 0.0517982 -0.28961
0.683418 0.0445165 -0.412791
0.72346 0.0365648 -0.523062
0.743193 0.0292015 -0.619879
0.750015 0.0228405 -0.703438
0.749244 0.0176098 -0.773491
0.743984 0.0129938 -0.828118
0.740417 0.0102719 -0.857286
0.580305 0.102549 0
0.701312 0.105715 -0.158284
0.854244 0.10199 -0.315741
0.962062 0.0922711 -0.46677
1.02621 0.0805753 -0.602723
1.05878 0.0689769 -0.721382
1.07059 0.0583861 -0.822871
1.06965 0.0492016 -0.907263
1.06208 0.0406319 -0.972166
1.05811 0.0361439 -1.00616
0.73204 0.152707 0
0.915829 0.163699 -0.155698
1.17282 0.167534 -0.347486
1.38802 0.160496 -0.547182
1.55224 0.147919 -0.733895
1.67411 0.133413 -0.900259
1.76341 0.118968 -1.04431
1.82746 0.10321 -1.16699
1.87239 0.0907816 -1.25613
1.89592 0.0842729 -1.30281
0.862014 0.19415 0
1.11523 0.219377 -0.130458
1.49696 0.243165 -0.350876
1.85292 0.252918 -0.604999
2.15875 0.253387 -0.854489
2.41514 0.248891 -1.08319
2.62909 0.239924 -1.28972
2.7972 0.227285 -1.4622
2.91596 0.218355 -1.58406
2.97815 0.213679 -1.64787
0.944172 0.212156 0
1.23789 0.248822 -0.0714085
1.68802 0.291999 -0.287672
2.11733 0.321245 -0.566638
2.49496 0.339079 -0.853816
2.81867 0.349372 -1.12406
3.09333 0.351208 -1.3808
3.3027 0.349525 -1.58787
3.45062 0.348335 -1.73416
3.52808 0.347713 -1.81078
0.960996 0.197478 0
1.24022 0.231517 0.00463529
1.64962 0.274245 -0.174571
2.01864 0.3057 -0.439267
2.32603 0.326707 -0.725919
2.57697 0.340183 -1.00341
2.77598 0.348388 -1.26951
2.92163 0.35388 -1.49181
3.02452 0.35776 -1.64886
3.0784 0.359792 -1.73111
0.910105 0.155346 0
1.13118 0.174278 0.0633901
1.42851 0.199166 -0.0741489
1.66661 0.218879 -0.307807
1.84067 0.233246 -0.572225
1.96452 0.243456 -0.834373
2.0515 0.250612 -1.0776
2.09176 0.260678 -1.29895
2.12011 0.267812 -1.45542
2.13495 0.271548 -1.53737
0.804442 0.104766 0
0.955199 0.109229 0.089429
1.13995 0.11942 -0.0149422
1.27057 0.133164 -0.209238
1.35284 0.14838 -0.432955
1.40122 0.163594 -0.656197
1.42724 0.177889 -0.864027
1.42833 0.193458 -1.04972
1.41881 0.207227 -1.18855
1.41382 0.214439 -1.26125
0.666161 0.0663428 0
0.757356 0.067111 0.097543
0.865186 0.0781702 0.031089
0.944366 0.099267 -0.103502
1.0017 0.125647 -0.257449
1.04466 0.153618 -0.409034
1.07776 0.180809 -0.548409
1.10234 0.205802 -0.670331
1.11051 0.22771 -0.767111
1.11479 0.239182 -0.817796
0.518146 0.0486203 0
0.568403 0.0555004 0.112121
0.633659 0.0768212 0.0988223
0.697668 0.107397 0.0422597
0.763111 0.141248 -0.0237685
0.829052 0.174751 -0.0870298
0.892954 0.205903 -0.14326
0.951627 0.233334 -0.190703
0.997757 0.255564 -0.231607
1.02182 0.267428 -0.254169
0.378065 0.0447822 0
0.405267 0.0591247 0.143226
0.447883 0.0866536 0.185644
0.502615 0.116132 0.194548
0.568504 0.143054 0.193237
0.640539 0.166192 0.189411
0.713333 0.185483 0.185573
0.781717 0.201071 0.182473
0.839545 0.213003 0.17783
0.871456 0.219567 0.172769
0.255107 0.0404087 0
0.273755 0.0561913 0.182492
0.306711 0.0805097 0.264445
0.35061 0.100465 0.301583
0.402723 0.113909 0.315583
0.458588 0.121883 0.317041
0.51413 0.125918 0.311787
0.565669 0.127347 0.303424
0.608788 0.127287 0.294657
0.63266 0.127541 0.286836
0.147527 0.0245202 0
0.164773 0.0328394 0.213255
0.19599 0.0461405 0.316767
0.232606 0.0564691 0.357553
0.270596 0.06243 0.360101
0.307356 0.064856 0.340666
0.341273 0.0648879 0.309911
0.371079 0.063517 0.27527
0.395063 0.0616134 0.243197
0.407235 0.0605344 0.223356
0.0436814 -0.00256735 0
0.0533314 -0.00917669 0.218217
0.0739205 -0.0126865 0.334073
0.0974841 -0.0108378 0.384534
0.119573 -0.00607988 0.392596
0.138616 -7.81824e-05 0.375524
0.154346 0.00620443 0.345123
0.166864 0.0121394 0.309712
0.176132 0.0171339 0.276435
0.180639 0.0200883 0.255856
-0.0700289 -0.0290372 0
-0.0855818 -0.0517915 0.186981
-0.102362 -0.073674 0.3085
-0.114232 -0.081855 0.386635
-0.123641 -0.080015 0.434065
-0.13199 -0.0723292 0.461168
-0.139703 -0.0617723 0.475239
-0.146702 -0.0504535 0.481195
-0.152548 -0.040231 0.482508
-0.155968 -0.0340346 0.482068
-0.198245 -0.040382 0
-0.254083 -0.0731625 0.124238
-0.329782 -0.108668 0.238331
-0.394613 -0.128204 0.344199
-0.447926 -0.135354 0.438859
-0.491882 -0.13483 0.521832
-0.528192 -0.130032 0.593384
-0.55772 -0.123308 0.653358
-0.580242 -0.116545 0.700064
-0.592641 -0.11224 0.726107
-0.139638 -0.0660865 0
-0.177923 -0.103698 0.154506
-0.222605 -0.148749 0.267461
-0.252399 -0.179657 0.349844
-0.270423 -0.198411 0.407646
-0.280949 -0.20886 0.447497
-0.286894 -0.213968 0.474654
-0.290055 -0.215787 0.49278
-0.291546 -0.215794 0.50421
-0.292052 -0.215301 0.509625
-0.250687 -0.0743298 0
-0.336387 -0.120935 0.0543193
-0.46268 -0.178288 0.123044
-0.580644 -0.219631 0.195443
-0.684347 -0.246853 0.263861
-0.774091 -0.264232 0.32547
-0.850861 -0.275058 0.379351
-0.914895 -0.281541 0.424861
-0.964621 -0.285125 0.460453
-0.992305 -0.28661 0.480339
-0.360301 -0.0569469 0
-0.486427 -0.100399 -0.0518148
-0.673956 -0.15465 -0.0341883
-0.849728 -0.195438 0.0175994
-1.0039 -0.224321 0.0826548
-1.13667 -0.244779 0.150116
-1.24961 -0.259404 0.214304
-1.3433 -0.269832 0.271577
-1.41572 -0.27694 0.318036
-1.45592 -0.280554 0.344566
-0.453996 -0.0196152 0
-0.601995 -0.0553395 -0.14426
-0.812007 -0.101802 -0.17596
-0.997803 -0.139444 -0.152856
-1.15247 -0.168707 -0.105515
-1.28001 -0.191635 -0.0496749
-1.38478 -0.209766 0.00649686
-1.46934 -0.223993 0.0580882
-1.53336 -0.234547 0.100622
-1.56841 -0.240252 0.125119
-0.520485 0.0283016 0
-0.671822 -0.00239418 -0.223413
-0.872724 -0.0462977 -0.307965
-1.03521 -0.0860822 -0.326842
-1.15878 -0.120115 -0.31486
-1.25251 -0.148861 -0.28941
-1.324 -0.172942 -0.259356
-1.37814 -0.192679 -0.229721
-1.41706 -0.207793 -0.204368
-1.43763 -0.21613 -0.189491
-0.557337 0.0833466 0
-0.700951 0.0548572 -0.298483
-0.881226 0.00955934 -0.448687
-1.01523 -0.0352613 -0.529391
-1.10749 -0.0757346 -0.573801
-1.1702 -0.111045 -0.598433
-1.21278 -0.141209 -0.61188
-1.24139 -0.166229 -0.618832
-1.25971 -0.185527 -0.622009
-1.26855 -0.196213 -0.623042
-0.570679 0.148213 0
-0.703996 0.125824 -0.367598
-0.868438 0.0868735 -0.59063
-0.987639 0.0461263 -0.744335
-1.06728 0.00833135 -0.856244
-1.11955 -0.0250815 -0.940697
-1.15361 -0.0538174 -1.00573
-1.17541 -0.0777354 -1.05572
-1.18865 -0.096216 -1.0922
-1.19473 -0.106456 -1.1117
-0.570529 0.222448 0
-0.697991 0.215582 -0.410732
-0.859468 0.199044 -0.689236
-0.981704 0.178981 -0.900899
-1.06807 0.15914 -1.06672
-1.12876 0.14102 -1.19888
-1.17163 0.125142 -1.30493
-1.20177 0.111768 -1.38903
-1.22201 0.101355 -1.45184
-1.23218 0.0955591 -1.48592
-0.563528 0.29367 0
-0.694638 0.309357 -0.403963
-0.871179 0.325913 -0.696395
-1.01574 0.336337 -0.927953
-1.12642 0.342683 -1.11377
-1.21057 0.34662 -1.26416
-1.27472 0.349106 -1.38615
-1.32319 0.350679 -1.48366
-1.35792 0.351635 -1.55691
-1.37622 0.352079 -1.5968
-0.546249 0.338709 0
-0.68957 0.37513 -0.34032
-0.897715 0.421144 -0.601796
-1.08273 0.457448 -0.81496
-1.23465 0.485075 -0.988318
-1.35707 0.506319 -1.12962
-1.45502 0.522833 -1.24475
-1.53204 0.535593 -1.33705
-1.58903 0.544933 -1.40653
-1.61971 0.549935 -1.44443
-0.504688 0.335086 0
-0.657847 0.382386 -0.236811
-0.8961 0.443798 -0.439347
-1.1226 0.493164 -0.613685
-1.31864 0.531029 -0.759437
-1.4832 0.560208 -0.880133
-1.6192 0.582879 -0.979445
-1.72893 0.60037 -1.05959
-1.81173 0.613153 -1.12019
-1.8569 0.619989 -1.15333
-0.423195 0.274329 0
-0.567385 0.320045 -0.122818
-0.804666 0.381334 -0.257897
-1.04233 0.432023 -0.387961
-1.25631 0.471659 -0.503133
-1.44144 0.502595 -0.601819
-1.59807 0.526841 -0.684838
-1.72681 0.545658 -0.752849
-1.82534 0.559466 -0.804811
-1.87961 0.566868 -0.833404
-0.298412 0.167074 0
-0.403484 0.199348 -0.0270354
-0.585933 0.245597 -0.0996428
-0.777652 0.286521 -0.185575
-0.956489 0.320261 -0.26879
-1.11539 0.347681 -0.343782
-1.25263 0.369849 -0.408936
-1.36725 0.387466 -0.463498
-1.45605 0.400626 -0.50582
-1.50534 0.407762 -0.529325
-0.147677 0.0377304 0
-0.185659 0.0463414 0.0247301
-0.258909 0.0611712 -0.00743773
-0.342557 0.0765827 -0.0604229
-0.425125 0.0907925 -0.117279
-0.501509 0.103281 -0.171294
-0.56949 0.113962 -0.219803
-0.627578 0.122809 -0.26136
-0.673353 0.129617 -0.29411
-0.699043 0.133379 -0.312479
-0.00462251 -0.0861657 0
0.033162 -0.105318 0.0127305
0.0918729 -0.133032 -0.0272734
0.147757 -0.157827 -0.0858986
0.196216 -0.178459 -0.147118
0.23694 -0.195352 -0.204715
0.270593 -0.209087 -0.256254
0.297721 -0.220054 -0.300363
0.318164 -0.228273 -0.335129
0.331879 -0.233507 -0.355627
0.0948904 -0.184203 0
0.184658 -0.222033 -0.059507
0.335545 -0.280862 -0.166405
0.490794 -0.337561 -0.287284
0.634135 -0.387532 -0.403409
0.760862 -0.430213 -0.50807
0.870034 -0.466024 -0.599206
0.961093 -0.495285 -0.675728
1.0337 -0.517562 -0.737808
1.07253 -0.529324 -0.771176
0.126927 -0.248222 0
0.218769 -0.284961 -0.151585
0.367599 -0.339324 -0.341652
0.514976 -0.389533 -0.539364
0.646792 -0.432448 -0.722684
0.760383 -0.468263 -0.884289
0.856238 -0.497762 -1.02271
0.934879 -0.521509 -1.13743
0.995858 -0.539175 -1.22714
1.0282 -0.54845 -1.27477
0.087163 -0.27961 0
0.135034 -0.300736 -0.213364
0.197605 -0.323357 -0.436414
0.243825 -0.336649 -0.652372
0.273225 -0.343135 -0.844906
0.290039 -0.345476 -1.0101
0.298282 -0.345437 -1.1487
0.301044 -0.344159 -1.26169
0.3008 -0.342534 -1.34781
0.300578 -0.341952 -1.39599
-0.0087991 -0.2822 0
-0.0212578 -0.287954 -0.229297
-0.0660339 -0.282844 -0.42271
-0.135697 -0.2665 -0.588892
-0.216921 -0.245336 -0.726392
-0.300267 -0.223283 -0.838201
-0.379849 -0.202385 -0.928178
-0.451331 -0.183863 -0.999127
-0.509692 -0.168942 -1.05165
-0.543175 -0.160464 -1.07992
-0.131754 -0.258252 0
-0.189914 -0.256296 -0.218723
-0.30457 -0.242979 -0.361269
-0.438976 -0.222368 -0.461788
-0.574625 -0.19999 -0.533545
-0.702327 -0.178613 -0.585328
-0.817536 -0.159426 -0.622964
-0.917017 -0.143049 -0.650123
-0.996033 -0.130203 -0.66877
-1.0406 -0.123026 -0.678281
-0.250207 -0.211106 0
-0.322919 -0.205028 -0.202537
-0.444677 -0.193678 -0.311713
-0.570016 -0.182074 -0.375713
-0.685931 -0.171998 -0.41456
-0.78858 -0.16376 -0.438726
-0.877144 -0.157208 -0.45395
-0.951113 -0.152139 -0.463483
-1.00845 -0.148464 -0.469182
-1.04028 -0.146518 -0.471776
-0.341582 -0.151171 0
-0.39852 -0.136779 -0.180019
-0.472881 -0.119838 -0.276344
-0.530904 -0.108597 -0.335478
-0.572475 -0.102017 -0.374996
-0.601547 -0.0984732 -0.403096
-0.621637 -0.0967972 -0.423894
-0.635249 -0.0962273 -0.439479
-0.643972 -0.096244 -0.450678
-0.648162 -0.0964119 -0.456618
-0.397286 -0.0980282 0
-0.422666 -0.070135 -0.133616
-0.428496 -0.0346449 -0.210406
-0.403619 -0.00712452 -0.264108
-0.361356 0.0131822 -0.305192
-0.312026 0.0282869 -0.338003
-0.261991 0.0396747 -0.364647
-0.215553 0.048246 -0.386084
-0.176915 0.0543911 -0.402316
-0.154523 0.0576368 -0.411213
-0.419774 -0.0732847 0
-0.416209 -0.0362231 -0.0562301
-0.369396 0.0151424 -0.0850405
-0.288769 0.0592084 -0.105896
-0.195159 0.0947718 -0.123274
-0.10106 0.123264 -0.138228
-0.0131131 0.146074 -0.151058
0.0644191 0.164082 -0.161787
0.126778 0.17747 -0.170127
0.162197 0.18471 -0.17477
-0.415161 -0.0872254 0
-0.393763 -0.0555362 0.0290794
-0.320864 -0.00983211 0.0624902
-0.217449 0.0304396 0.0894556
-0.105708 0.0632112 0.108631
0.00247499 0.0893819 0.121671
0.101279 0.110139 0.130319
0.187052 0.126329 0.135878
0.25532 0.138221 0.139223
0.29385 0.144591 0.140738
-0.387631 -0.130459 0
-0.354881 -0.117554 0.0852295
-0.265458 -0.0977061 0.162565
-0.145774 -0.0797577 0.22231
-0.018443 -0.0652946 0.264174
0.104432 -0.054082 0.292165
0.216746 -0.0455369 0.310219
0.314455 -0.0391601 0.321327
0.392402 -0.0346743 0.327602
0.436474 -0.0323503 0.330243
-0.339177 -0.17877 0
-0.29582 -0.187286 0.0923279
-0.18737 -0.195671 0.182223
-0.0450438 -0.199882 0.253419
0.106407 -0.201408 0.303376
0.253234 -0.201501 0.336263
0.388139 -0.200892 0.356784
0.50605 -0.200001 0.368709
0.600471 -0.199114 0.374848
0.653993 -0.198556 0.377127
-0.272192 -0.207226 0
-0.221641 -0.229254 0.0584142
-0.103657 -0.253162 0.142798
0.046043 -0.26628 0.223884
0.202418 -0.271049 0.29099
0.352182 -0.270672 0.343671
0.488579 -0.267449 0.384068
0.607011 -0.262953 0.414307
0.701388 -0.258443 0.435607
0.754717 -0.255576 0.446648
-0.190661 -0.202654 0
-0.142015 -0.226747 0.0075803
-0.0402925 -0.252209 0.0852603
0.0782019 -0.264587 0.188242
0.1943 -0.266785 0.292838
0.300074 -0.262771 0.389687
0.392661 -0.255465 0.47531
0.470556 -0.246932 0.547873
0.531136 -0.23892 0.604623
0.564516 -0.234002 0.636385
-0.0992251 -0.167459 0
-0.0590125 -0.185812 -0.0388947
0.010321 -0.2072 0.0309241
0.0766212 -0.220292 0.152717
0.130459 -0.226288 0.291483
0.171339 -0.22759 0.429541
0.201276 -0.226093 0.557942
0.222452 -0.223169 0.670905
0.236468 -0.219931 0.761706
0.243298 -0.217789 0.813264
-0.00180389 -0.114658 0
0.0337602 -0.125213 -0.0724624
0.0834021 -0.143381 -0.0226119
0.11914 -0.162243 0.0900214
0.138308 -0.179609 0.227592
0.144608 -0.19484 0.369534
0.142345 -0.207836 0.50466
0.1352 -0.218574 0.625477
0.126476 -0.226819 0.723701
0.119731 -0.231358 0.779392
0.0994134 -0.0583095 0
0.141307 -0.0623125 -0.0939691
0.200422 -0.0780886 -0.0816068
0.248022 -0.102348 -0.0145203
0.281736 -0.129912 0.0767891
0.30439 -0.157513 0.175432
0.319079 -0.183328 0.271874
0.328191 -0.206128 0.359631
0.333408 -0.224501 0.431839
0.333589 -0.234427 0.471345
0.205179 -0.00580394 0
0.262473 -0.00488899 -0.105625
0.349906 -0.0161621 -0.140777
0.432294 -0.0390403 -0.141912
0.504268 -0.0674625 -0.125665
0.566006 -0.0972128 -0.100952
0.618438 -0.125793 -0.0730079
0.661956 -0.15149 -0.0454053
0.69504 -0.172283 -0.0218341
0.712025 -0.183418 -0.00918525
0.319936 0.0433275 0
0.39689 0.0482997 -0.107458
0.511851 0.0442534 -0.184723
0.618176 0.0295298 -0.251464
0.709781 0.00916077 -0.31002
0.787545 -0.0131729 -0.360753
0.853068 -0.0352132 -0.403963
0.907131 -0.0553855 -0.439706
0.947989 -0.0723524 -0.467358
0.969416 -0.0815872 -0.482111
0.449128 0.0929769 0
0.55379 0.102718 -0.098463
0.70065 0.107985 -0.202199
0.824281 0.104677 -0.31513
0.919974 0.0963138 -0.428521
0.992811 0.0856027 -0.536076
1.04812 0.0742356 -0.634003
1.08965 0.0633821 -0.719268
1.11765 0.0531388 -0.787422
1.1322 0.0476552 -0.823336
0.592013 0.144378 0
0.744221 0.162123 -0.0751058
0.958502 0.180868 -0.187183
1.13837 0.192597 -0.323468
1.2758 0.199591 -0.466885
1.3781 0.203748 -0.606703
1.45351 0.206188 -0.736449
1.50705 0.206915 -0.852189
1.54271 0.2063 -0.940253
1.56139 0.205978 -0.986373
0.735168 0.19188 0
0.959506 0.221713 -0.0294571
1.29563 0.258963 -0.128921
1.60267 0.289333 -0.264367
1.85924 0.314225 -0.410975
2.06811 0.335199 -0.555258
2.23615 0.353068 -0.689673
2.36666 0.365119 -0.807891
2.4589 0.373593 -0.891566
2.50721 0.37803 -0.935388
0.854169 0.223146 0
1.15824 0.264463 0.0434667
1.64092 0.317269 -0.0222637
2.11412 0.360154 -0.136575
2.53683 0.394452 -0.265187
2.90199 0.422543 -0.391922
3.21621 0.442521 -0.513897
3.45801 0.45535 -0.611313
3.62885 0.464414 -0.680135
3.71831 0.469161 -0.716178
0.923852 0.224699 0
1.27791 0.266787 0.130709
1.85232 0.316788 0.102595
2.42903 0.350688 0.00213046
2.95479 0.371107 -0.123366
3.41663 0.382538 -0.251251
3.81738 0.380998 -0.385186
4.11687 0.378372 -0.48803
4.32845 0.376516 -0.560688
4.43925 0.375545 -0.598739
0.929349 0.191053 0
1.27582 0.217322 0.199109
1.82931 0.241771 0.184859
2.37504 0.248281 0.0618637
2.86454 0.241182 -0.107617
3.28873 0.225994 -0.289879
3.64298 0.202855 -0.487293
3.90663 0.183897 -0.642515
4.0929 0.170504 -0.752175
4.19044 0.163489 -0.809605
0.871003 0.131857 0
1.16053 0.134047 0.221168
1.60668 0.128359 0.194083
2.03052 0.114234 0.0345354
2.39915 0.0955567 -0.185181
2.71072 0.075233 -0.423729
2.96089 0.0560244 -0.671978
3.14045 0.0417799 -0.886108
3.2673 0.0317166 -1.03739
3.33374 0.0264463 -1.11661
0.762174 0.0693717 0
0.973849 0.0549781 0.200557
1.28756 0.0364687 0.160639
1.57664 0.0249546 0.000469818
1.82355 0.0206289 -0.209995
2.03008 0.0214574 -0.433251
2.20093 0.0254454 -0.648856
2.31597 0.0372454 -0.857024
2.39613 0.0460339 -1.00585
2.43811 0.0506364 -1.08379
0.622658 0.0252645 0
0.758787 0.0101998 0.167079
0.953399 0.000520116 0.141413
1.13106 0.00740523 0.0373955
1.28492 0.0265365 -0.0905733
1.41665 0.0524551 -0.219052
1.52843 0.0809706 -0.337801
1.61715 0.111481 -0.446509
1.67703 0.137887 -0.533341
1.70839 0.151716 -0.578815
0.472272 0.00736259 0
0.548064 0.00334561 0.150952
0.652295 0.0112511 0.167348
0.748975 0.0331694 0.147758
0.837295 0.0629183 0.126478
0.917631 0.0955518 0.112111
0.98964 0.127862 0.105145
1.05211 0.157528 0.103836
1.10318 0.183547 0.100309
1.13038 0.197581 0.0977882
0.327502 0.00724261 0
0.364511 0.015794 0.163188
0.414924 0.0365514 0.22774
0.466096 0.0613127 0.272924
0.518772 0.0851445 0.319709
0.571649 0.106272 0.370245
0.622605 0.124258 0.422014
0.669164 0.139012 0.47139
0.709072 0.150348 0.51255
0.733647 0.156637 0.533417
0.199122 0.00806558 0
0.218991 0.0222184 0.195436
0.253382 0.0458924 0.297976
0.297941 0.0660449 0.369798
0.350108 0.0796138 0.428783
0.405715 0.0873605 0.48016
0.460887 0.090838 0.525323
0.512056 0.0915081 0.564119
0.554878 0.0906558 0.595015
0.580427 0.0896511 0.610233
0.0887922 -0.00420393 0
0.103581 0.00321273 0.226079
0.142725 0.0167233 0.353792
0.201934 0.0276984 0.430304
0.272705 0.0338352 0.474923
0.347343 0.0357941 0.499369
0.420245 0.0348505 0.51113
0.48689 0.0322209 0.515132
0.54202 0.0290511 0.514896
0.572682 0.0269075 0.512177
-0.0116323 -0.0313248 0
-0.00819338 -0.0429275 0.225713
0.0196041 -0.0538685 0.362373
0.0710375 -0.0596692 0.442139
0.135235 -0.0625121 0.48242
0.203443 -0.0638393 0.497103
0.269904 -0.0643904 0.496146
0.330361 -0.0645454 0.486609
0.380122 -0.0645165 0.474122
0.40825 -0.0642888 0.464907
-0.11392 -0.0607413 0
-0.141844 -0.0941952 0.174193
-0.168091 -0.133714 0.294971
-0.177174 -0.160342 0.377839
-0.174421 -0.176099 0.431673
-0.16527 -0.184512 0.465158
-0.153301 -0.188257 0.484933
-0.140856 -0.189181 0.495664
-0.129858 -0.188635 0.500639
-0.123283 -0.187883 0.502207
-0.223646 -0.0746719 0
-0.297928 -0.120393 0.080068
-0.405203 -0.176438 0.160633
-0.503321 -0.216447 0.236578
-0.588251 -0.242336 0.303635
-0.660983 -0.258408 0.361239
-0.722767 -0.267994 0.409905
-0.774065 -0.273353 0.449958
-0.813781 -0.27601 0.480689
-0.835855 -0.276958 0.497652
				 </DataArray>
			 </PointData>
			 <Points>
				 <DataArray type="Float64" NumberOfComponents="3" format="ascii">
   -882.6850    -882.6850     -76.4000
   -882.6850    -882.6850     -44.1378
   -882.6850    -882.6850     -28.1440
   -882.6850    -882.6850     -18.7628
   -882.6850    -882.6850     -12.6566
   -882.6850    -882.6850      -8.4031
   -882.6850    -882.6850      -5.3151
   -882.6850    -882.6850      -3.0442
   -882.6850    -882.6850      -1.4398
   -882.6850    -882.6850      -0.5996
   -882.6850    -846.6570     -76.4000
   -882.6850    -846.6570     -44.5299
   -882.6850    -846.6570     -28.7305
   -882.6850    -846.6570     -19.4633
   -882.6850    -846.6570     -13.4314
   -882.6850    -846.6570      -9.2295
   -882.6850    -846.6570      -6.1791
   -882.6850    -846.6570      -3.9357
   -882.6850    -846.6570      -2.3509
   -882.6850    -846.6570      -1.5209
   -882.6850    -810.6291     -76.4000
   -882.6850    -810.6291     -44.8867
   -882.6850    -810.6291     -29.2642
   -882.6850    -810.6291     -20.1008
   -882.6850    -810.6291     -14.1364
   -882.6850    -810.6291      -9.9817
   -882.6850    -810.6291      -6.9653
   -882.6850    -810.6291      -4.7471
   -882.6850    -810.6291      -3.1800
   -882.6850    -810.6291      -2.3593
   -882.6850    -774.6011     -76.4000
   -882.6850    -774.6011     -45.1038
   -882.6850    -774.6011     -29.5890
   -882.6850    -774.6011     -20.4887
   -882.6850    -774.6011     -14.5654
   -882.6850    -774.6011     -10.4392
   -882.6850    -774.6011      -7.4437
   -882.6850    -774.6011      -5.2408
   -882.6850    -774.6011      -3.6845
   -882.6850    -774.6011      -2.8694
   -882.6850    -738.5732     -76.4000
   -882.6850    -738.5732     -45.2023
   -882.6850    -738.5732     -29.7362
   -882.6850    -738.5732     -20.6645